 Entering Gaussian System, Link 0=/apps/gaussian16/B.01/AVX2/g16/g16
 Initial command:
 /apps/gaussian16/B.01/AVX2/g16/l1.exe "/tmp/Gau-3080543.inp" -scrdir="/tmp/"
 Entering Link 1 = /apps/gaussian16/B.01/AVX2/g16/l1.exe PID=   3080544.
  
 Copyright (c) 1988-2017, Gaussian, Inc.  All Rights Reserved.
  
 This is part of the Gaussian(R) 16 program.  It is based on
 the Gaussian(R) 09 system (copyright 2009, Gaussian, Inc.),
 the Gaussian(R) 03 system (copyright 2003, Gaussian, Inc.),
 the Gaussian(R) 98 system (copyright 1998, Gaussian, Inc.),
 the Gaussian(R) 94 system (copyright 1995, Gaussian, Inc.),
 the Gaussian 92(TM) system (copyright 1992, Gaussian, Inc.),
 the Gaussian 90(TM) system (copyright 1990, Gaussian, Inc.),
 the Gaussian 88(TM) system (copyright 1988, Gaussian, Inc.),
 the Gaussian 86(TM) system (copyright 1986, Carnegie Mellon
 University), and the Gaussian 82(TM) system (copyright 1983,
 Carnegie Mellon University). Gaussian is a federally registered
 trademark of Gaussian, Inc.
  
 This software contains proprietary and confidential information,
 including trade secrets, belonging to Gaussian, Inc.
  
 This software is provided under written license and may be
 used, copied, transmitted, or stored only in accord with that
 written license.
  
 The following legend is applicable only to US Government
 contracts under FAR:
  
                    RESTRICTED RIGHTS LEGEND
  
 Use, reproduction and disclosure by the US Government is
 subject to restrictions as set forth in subparagraphs (a)
 and (c) of the Commercial Computer Software - Restricted
 Rights clause in FAR 52.227-19.
  
 Gaussian, Inc.
 340 Quinnipiac St., Bldg. 40, Wallingford CT 06492
  
  
 ---------------------------------------------------------------
 Warning -- This program may not be used in any manner that
 competes with the business of Gaussian, Inc. or will provide
 assistance to any competitor of Gaussian, Inc.  The licensee
 of this program is prohibited from giving any competitor of
 Gaussian, Inc. access to this program.  By using this program,
 the user acknowledges that Gaussian, Inc. is engaged in the
 business of creating and licensing software in the field of
 computational chemistry and represents and warrants to the
 licensee that it is not a competitor of Gaussian, Inc. and that
 it will not use this program in any manner prohibited above.
 ---------------------------------------------------------------
  

 Cite this work as:
 Gaussian 16, Revision B.01,
 M. J. Frisch, G. W. Trucks, H. B. Schlegel, G. E. Scuseria, 
 M. A. Robb, J. R. Cheeseman, G. Scalmani, V. Barone, 
 G. A. Petersson, H. Nakatsuji, X. Li, M. Caricato, A. V. Marenich, 
 J. Bloino, B. G. Janesko, R. Gomperts, B. Mennucci, H. P. Hratchian, 
 J. V. Ortiz, A. F. Izmaylov, J. L. Sonnenberg, D. Williams-Young, 
 F. Ding, F. Lipparini, F. Egidi, J. Goings, B. Peng, A. Petrone, 
 T. Henderson, D. Ranasinghe, V. G. Zakrzewski, J. Gao, N. Rega, 
 G. Zheng, W. Liang, M. Hada, M. Ehara, K. Toyota, R. Fukuda, 
 J. Hasegawa, M. Ishida, T. Nakajima, Y. Honda, O. Kitao, H. Nakai, 
 T. Vreven, K. Throssell, J. A. Montgomery, Jr., J. E. Peralta, 
 F. Ogliaro, M. J. Bearpark, J. J. Heyd, E. N. Brothers, K. N. Kudin, 
 V. N. Staroverov, T. A. Keith, R. Kobayashi, J. Normand, 
 K. Raghavachari, A. P. Rendell, J. C. Burant, S. S. Iyengar, 
 J. Tomasi, M. Cossi, J. M. Millam, M. Klene, C. Adamo, R. Cammi, 
 J. W. Ochterski, R. L. Martin, K. Morokuma, O. Farkas, 
 J. B. Foresman, and D. J. Fox, Gaussian, Inc., Wallingford CT, 2016.
 
 ******************************************
 Gaussian 16:  ES64L-G16RevB.01 20-Dec-2017
                 7-Apr-2025 
 ******************************************
 %mem=8GB
 %nprocs=4
 Will use up to    4 processors via shared memory.
 ----------------------------------------------------------------------
 # opt=maxcycles=500 freq=noraman ub3lyp/6-31G(d) scf=(xqc,maxcycles=10
 00) temperature=283.15
 ----------------------------------------------------------------------
 1/6=500,18=20,19=15,26=3,38=1,112=283150/1,3;
 2/9=110,12=2,17=6,18=5,40=1/2;
 3/5=1,6=6,7=1,11=2,25=1,30=1,71=1,74=-5,116=2/1,2,3;
 4//1;
 5/5=2,7=1000,8=3,13=1,38=5/2,8;
 6/7=2,8=2,9=2,10=2,28=1/1;
 7//1,2,3,16;
 1/6=500,18=20,19=15,26=3/3(2);
 2/9=110/2;
 99//99;
 2/9=110/2;
 3/5=1,6=6,7=1,11=2,25=1,30=1,71=1,74=-5,116=2/1,2,3;
 4/5=5,16=3,69=1/1;
 5/5=2,7=1000,8=3,13=1,38=5/2,8;
 7//1,2,3,16;
 1/6=500,18=20,19=15,26=3/3(-5);
 2/9=110/2;
 6/7=2,8=2,9=2,10=2,19=2,28=1/1;
 99/9=1/99;
 -------------------
 Title Card Required
 -------------------
 Symbolic Z-matrix:
 Charge =  0 Multiplicity = 1
 C                     2.11789  -1.40198  -1.0253 
 C                     3.3423   -0.60231  -1.07625 
 C                     3.91565   0.31058   0.06767 
 C                     4.22958   1.42777  -0.98814 
 C                     3.68945   0.50738  -2.13742 
 C                     5.12417  -0.09071  -2.33751 
 C                     4.82409  -1.20893  -1.28683 
 C                     5.66973   0.83323  -1.19017 
 C                     5.34998  -0.28827  -0.13768 
 H                     6.59532   1.41065  -1.23334 
 H                     3.98589   2.48477  -0.87028 
 H                     3.01194   0.8184   -2.93432 
 H                     5.60769  -0.25533  -3.30224 
 H                     3.4254    0.46412   1.03042 
 H                     6.01516  -0.61325   0.66468 
 H                     5.02973  -2.27466  -1.4037 
 H                     1.84923  -1.9238   -1.94816 
 H                     1.28218  -0.69431  -0.92142 
 H                     1.97797  -2.01812  -0.13279 
 

 GradGradGradGradGradGradGradGradGradGradGradGradGradGradGradGradGradGrad
 Berny optimization.
 Initialization pass.
                           ----------------------------
                           !    Initial Parameters    !
                           ! (Angstroms and Degrees)  !
 --------------------------                            --------------------------
 ! Name  Definition              Value          Derivative Info.                !
 --------------------------------------------------------------------------------
 ! R1    R(1,2)                  1.4633         estimate D2E/DX2                !
 ! R2    R(1,17)                 1.0937         estimate D2E/DX2                !
 ! R3    R(1,18)                 1.1            estimate D2E/DX2                !
 ! R4    R(1,19)                 1.0935         estimate D2E/DX2                !
 ! R5    R(2,3)                  1.5718         estimate D2E/DX2                !
 ! R6    R(2,5)                  1.5742         estimate D2E/DX2                !
 ! R7    R(2,7)                  1.6149         estimate D2E/DX2                !
 ! R8    R(3,4)                  1.5689         estimate D2E/DX2                !
 ! R9    R(3,9)                  1.5678         estimate D2E/DX2                !
 ! R10   R(3,14)                 1.0912         estimate D2E/DX2                !
 ! R11   R(4,5)                  1.5683         estimate D2E/DX2                !
 ! R12   R(4,8)                  1.5711         estimate D2E/DX2                !
 ! R13   R(4,11)                 1.0911         estimate D2E/DX2                !
 ! R14   R(5,6)                  1.5672         estimate D2E/DX2                !
 ! R15   R(5,12)                 1.0912         estimate D2E/DX2                !
 ! R16   R(6,7)                  1.5635         estimate D2E/DX2                !
 ! R17   R(6,8)                  1.5709         estimate D2E/DX2                !
 ! R18   R(6,13)                 1.0916         estimate D2E/DX2                !
 ! R19   R(7,9)                  1.5636         estimate D2E/DX2                !
 ! R20   R(7,16)                 1.0917         estimate D2E/DX2                !
 ! R21   R(8,9)                  1.5709         estimate D2E/DX2                !
 ! R22   R(8,10)                 1.0918         estimate D2E/DX2                !
 ! R23   R(9,15)                 1.0917         estimate D2E/DX2                !
 ! A1    A(2,1,17)             115.9065         estimate D2E/DX2                !
 ! A2    A(2,1,18)             106.7037         estimate D2E/DX2                !
 ! A3    A(2,1,19)             116.3207         estimate D2E/DX2                !
 ! A4    A(17,1,18)            101.5375         estimate D2E/DX2                !
 ! A5    A(17,1,19)            112.8578         estimate D2E/DX2                !
 ! A6    A(18,1,19)            100.8472         estimate D2E/DX2                !
 ! A7    A(1,2,3)              126.6742         estimate D2E/DX2                !
 ! A8    A(1,2,5)              126.3869         estimate D2E/DX2                !
 ! A9    A(1,2,7)              124.5427         estimate D2E/DX2                !
 ! A10   A(3,2,5)               90.0424         estimate D2E/DX2                !
 ! A11   A(3,2,7)               88.7603         estimate D2E/DX2                !
 ! A12   A(5,2,7)               88.5416         estimate D2E/DX2                !
 ! A13   A(2,3,4)               89.8165         estimate D2E/DX2                !
 ! A14   A(2,3,9)               90.9485         estimate D2E/DX2                !
 ! A15   A(2,3,14)             124.0501         estimate D2E/DX2                !
 ! A16   A(4,3,9)               90.0451         estimate D2E/DX2                !
 ! A17   A(4,3,14)             125.6919         estimate D2E/DX2                !
 ! A18   A(9,3,14)             125.4717         estimate D2E/DX2                !
 ! A19   A(3,4,5)               90.3633         estimate D2E/DX2                !
 ! A20   A(3,4,8)               90.0277         estimate D2E/DX2                !
 ! A21   A(3,4,11)             124.9208         estimate D2E/DX2                !
 ! A22   A(5,4,8)               89.9644         estimate D2E/DX2                !
 ! A23   A(5,4,11)             124.8028         estimate D2E/DX2                !
 ! A24   A(8,4,11)             125.8178         estimate D2E/DX2                !
 ! A25   A(2,5,4)               89.7513         estimate D2E/DX2                !
 ! A26   A(2,5,6)               91.0846         estimate D2E/DX2                !
 ! A27   A(2,5,12)             123.7995         estimate D2E/DX2                !
 ! A28   A(4,5,6)               90.1283         estimate D2E/DX2                !
 ! A29   A(4,5,12)             125.5701         estimate D2E/DX2                !
 ! A30   A(6,5,12)             125.7256         estimate D2E/DX2                !
 ! A31   A(5,6,7)               90.6555         estimate D2E/DX2                !
 ! A32   A(5,6,8)               90.0132         estimate D2E/DX2                !
 ! A33   A(5,6,13)             125.1617         estimate D2E/DX2                !
 ! A34   A(7,6,8)               89.7992         estimate D2E/DX2                !
 ! A35   A(7,6,13)             124.825          estimate D2E/DX2                !
 ! A36   A(8,6,13)             125.4752         estimate D2E/DX2                !
 ! A37   A(2,7,6)               89.7179         estimate D2E/DX2                !
 ! A38   A(2,7,9)               89.5186         estimate D2E/DX2                !
 ! A39   A(2,7,16)             123.6081         estimate D2E/DX2                !
 ! A40   A(6,7,9)               90.4706         estimate D2E/DX2                !
 ! A41   A(6,7,16)             126.1663         estimate D2E/DX2                !
 ! A42   A(9,7,16)             126.1685         estimate D2E/DX2                !
 ! A43   A(4,8,6)               89.8935         estimate D2E/DX2                !
 ! A44   A(4,8,9)               89.8526         estimate D2E/DX2                !
 ! A45   A(4,8,10)             125.5956         estimate D2E/DX2                !
 ! A46   A(6,8,9)               89.9288         estimate D2E/DX2                !
 ! A47   A(6,8,10)             125.2132         estimate D2E/DX2                !
 ! A48   A(9,8,10)             125.2138         estimate D2E/DX2                !
 ! A49   A(3,9,7)               90.7714         estimate D2E/DX2                !
 ! A50   A(3,9,8)               90.0735         estimate D2E/DX2                !
 ! A51   A(3,9,15)             125.0894         estimate D2E/DX2                !
 ! A52   A(7,9,8)               89.7947         estimate D2E/DX2                !
 ! A53   A(7,9,15)             124.7367         estimate D2E/DX2                !
 ! A54   A(8,9,15)             125.5144         estimate D2E/DX2                !
 ! D1    D(17,1,2,3)           176.1914         estimate D2E/DX2                !
 ! D2    D(17,1,2,5)            52.8309         estimate D2E/DX2                !
 ! D3    D(17,1,2,7)           -65.1316         estimate D2E/DX2                !
 ! D4    D(18,1,2,3)            63.9874         estimate D2E/DX2                !
 ! D5    D(18,1,2,5)           -59.3731         estimate D2E/DX2                !
 ! D6    D(18,1,2,7)          -177.3355         estimate D2E/DX2                !
 ! D7    D(19,1,2,3)           -47.5835         estimate D2E/DX2                !
 ! D8    D(19,1,2,5)          -170.944          estimate D2E/DX2                !
 ! D9    D(19,1,2,7)            71.0936         estimate D2E/DX2                !
 ! D10   D(1,2,3,4)           -136.5147         estimate D2E/DX2                !
 ! D11   D(1,2,3,9)            133.4432         estimate D2E/DX2                !
 ! D12   D(1,2,3,14)            -1.9275         estimate D2E/DX2                !
 ! D13   D(5,2,3,4)              1.234          estimate D2E/DX2                !
 ! D14   D(5,2,3,9)            -88.808          estimate D2E/DX2                !
 ! D15   D(5,2,3,14)           135.8212         estimate D2E/DX2                !
 ! D16   D(7,2,3,4)             89.7744         estimate D2E/DX2                !
 ! D17   D(7,2,3,9)             -0.2677         estimate D2E/DX2                !
 ! D18   D(7,2,3,14)          -135.6384         estimate D2E/DX2                !
 ! D19   D(1,2,5,4)            136.707          estimate D2E/DX2                !
 ! D20   D(1,2,5,6)           -133.1694         estimate D2E/DX2                !
 ! D21   D(1,2,5,12)             2.5116         estimate D2E/DX2                !
 ! D22   D(3,2,5,4)             -1.2345         estimate D2E/DX2                !
 ! D23   D(3,2,5,6)             88.8892         estimate D2E/DX2                !
 ! D24   D(3,2,5,12)          -135.4299         estimate D2E/DX2                !
 ! D25   D(7,2,5,4)            -89.9933         estimate D2E/DX2                !
 ! D26   D(7,2,5,6)              0.1303         estimate D2E/DX2                !
 ! D27   D(7,2,5,12)           135.8113         estimate D2E/DX2                !
 ! D28   D(1,2,7,6)            134.5304         estimate D2E/DX2                !
 ! D29   D(1,2,7,9)           -134.9966         estimate D2E/DX2                !
 ! D30   D(1,2,7,16)            -0.3242         estimate D2E/DX2                !
 ! D31   D(3,2,7,6)            -90.2046         estimate D2E/DX2                !
 ! D32   D(3,2,7,9)              0.2684         estimate D2E/DX2                !
 ! D33   D(3,2,7,16)           134.9408         estimate D2E/DX2                !
 ! D34   D(5,2,7,6)             -0.1306         estimate D2E/DX2                !
 ! D35   D(5,2,7,9)             90.3423         estimate D2E/DX2                !
 ! D36   D(5,2,7,16)          -134.9853         estimate D2E/DX2                !
 ! D37   D(2,3,4,5)             -1.2387         estimate D2E/DX2                !
 ! D38   D(2,3,4,8)            -91.2032         estimate D2E/DX2                !
 ! D39   D(2,3,4,11)           133.2308         estimate D2E/DX2                !
 ! D40   D(9,3,4,5)             89.7097         estimate D2E/DX2                !
 ! D41   D(9,3,4,8)             -0.2549         estimate D2E/DX2                !
 ! D42   D(9,3,4,11)          -135.8209         estimate D2E/DX2                !
 ! D43   D(14,3,4,5)          -134.6409         estimate D2E/DX2                !
 ! D44   D(14,3,4,8)           135.3946         estimate D2E/DX2                !
 ! D45   D(14,3,4,11)           -0.1714         estimate D2E/DX2                !
 ! D46   D(2,3,9,7)              0.2764         estimate D2E/DX2                !
 ! D47   D(2,3,9,8)             90.0721         estimate D2E/DX2                !
 ! D48   D(2,3,9,15)          -134.625          estimate D2E/DX2                !
 ! D49   D(4,3,9,7)            -89.5408         estimate D2E/DX2                !
 ! D50   D(4,3,9,8)              0.2549         estimate D2E/DX2                !
 ! D51   D(4,3,9,15)           135.5579         estimate D2E/DX2                !
 ! D52   D(14,3,9,7)           134.6562         estimate D2E/DX2                !
 ! D53   D(14,3,9,8)          -135.5481         estimate D2E/DX2                !
 ! D54   D(14,3,9,15)           -0.2452         estimate D2E/DX2                !
 ! D55   D(3,4,5,2)              1.2368         estimate D2E/DX2                !
 ! D56   D(3,4,5,6)            -89.8472         estimate D2E/DX2                !
 ! D57   D(3,4,5,12)           134.1433         estimate D2E/DX2                !
 ! D58   D(8,4,5,2)             91.2643         estimate D2E/DX2                !
 ! D59   D(8,4,5,6)              0.1802         estimate D2E/DX2                !
 ! D60   D(8,4,5,12)          -135.8293         estimate D2E/DX2                !
 ! D61   D(11,4,5,2)          -133.3163         estimate D2E/DX2                !
 ! D62   D(11,4,5,6)           135.5997         estimate D2E/DX2                !
 ! D63   D(11,4,5,12)           -0.4098         estimate D2E/DX2                !
 ! D64   D(3,4,8,6)             90.1834         estimate D2E/DX2                !
 ! D65   D(3,4,8,9)              0.2544         estimate D2E/DX2                !
 ! D66   D(3,4,8,10)          -134.7609         estimate D2E/DX2                !
 ! D67   D(5,4,8,6)             -0.1798         estimate D2E/DX2                !
 ! D68   D(5,4,8,9)            -90.1089         estimate D2E/DX2                !
 ! D69   D(5,4,8,10)           134.8759         estimate D2E/DX2                !
 ! D70   D(11,4,8,6)          -134.8818         estimate D2E/DX2                !
 ! D71   D(11,4,8,9)           135.1892         estimate D2E/DX2                !
 ! D72   D(11,4,8,10)            0.1739         estimate D2E/DX2                !
 ! D73   D(2,5,6,7)             -0.1346         estimate D2E/DX2                !
 ! D74   D(2,5,6,8)            -89.9339         estimate D2E/DX2                !
 ! D75   D(2,5,6,13)           134.8276         estimate D2E/DX2                !
 ! D76   D(4,5,6,7)             89.6191         estimate D2E/DX2                !
 ! D77   D(4,5,6,8)             -0.1803         estimate D2E/DX2                !
 ! D78   D(4,5,6,13)          -135.4188         estimate D2E/DX2                !
 ! D79   D(12,5,6,7)          -134.4793         estimate D2E/DX2                !
 ! D80   D(12,5,6,8)           135.7214         estimate D2E/DX2                !
 ! D81   D(12,5,6,13)            0.4829         estimate D2E/DX2                !
 ! D82   D(5,6,7,2)              0.1312         estimate D2E/DX2                !
 ! D83   D(5,6,7,9)            -89.3851         estimate D2E/DX2                !
 ! D84   D(5,6,7,16)           133.1339         estimate D2E/DX2                !
 ! D85   D(8,6,7,2)             90.1421         estimate D2E/DX2                !
 ! D86   D(8,6,7,9)              0.6258         estimate D2E/DX2                !
 ! D87   D(8,6,7,16)          -136.8552         estimate D2E/DX2                !
 ! D88   D(13,6,7,2)          -135.066          estimate D2E/DX2                !
 ! D89   D(13,6,7,9)           135.4177         estimate D2E/DX2                !
 ! D90   D(13,6,7,16)           -2.0633         estimate D2E/DX2                !
 ! D91   D(5,6,8,4)              0.1799         estimate D2E/DX2                !
 ! D92   D(5,6,8,9)             90.0326         estimate D2E/DX2                !
 ! D93   D(5,6,8,10)          -135.1458         estimate D2E/DX2                !
 ! D94   D(7,6,8,4)            -90.4756         estimate D2E/DX2                !
 ! D95   D(7,6,8,9)             -0.6229         estimate D2E/DX2                !
 ! D96   D(7,6,8,10)           134.1987         estimate D2E/DX2                !
 ! D97   D(13,6,8,4)           135.1974         estimate D2E/DX2                !
 ! D98   D(13,6,8,9)          -134.9499         estimate D2E/DX2                !
 ! D99   D(13,6,8,10)           -0.1283         estimate D2E/DX2                !
 ! D100  D(2,7,9,3)             -0.269          estimate D2E/DX2                !
 ! D101  D(2,7,9,8)            -90.3398         estimate D2E/DX2                !
 ! D102  D(2,7,9,15)           134.8783         estimate D2E/DX2                !
 ! D103  D(6,7,9,3)             89.445          estimate D2E/DX2                !
 ! D104  D(6,7,9,8)             -0.6258         estimate D2E/DX2                !
 ! D105  D(6,7,9,15)          -135.4077         estimate D2E/DX2                !
 ! D106  D(16,7,9,3)          -133.0755         estimate D2E/DX2                !
 ! D107  D(16,7,9,8)           136.8537         estimate D2E/DX2                !
 ! D108  D(16,7,9,15)            2.0718         estimate D2E/DX2                !
 ! D109  D(4,8,9,3)             -0.2546         estimate D2E/DX2                !
 ! D110  D(4,8,9,7)             90.5165         estimate D2E/DX2                !
 ! D111  D(4,8,9,15)          -135.2582         estimate D2E/DX2                !
 ! D112  D(6,8,9,3)            -90.1483         estimate D2E/DX2                !
 ! D113  D(6,8,9,7)              0.6228         estimate D2E/DX2                !
 ! D114  D(6,8,9,15)           134.8481         estimate D2E/DX2                !
 ! D115  D(10,8,9,3)           135.0306         estimate D2E/DX2                !
 ! D116  D(10,8,9,7)          -134.1983         estimate D2E/DX2                !
 ! D117  D(10,8,9,15)            0.027          estimate D2E/DX2                !
 --------------------------------------------------------------------------------
 Trust Radius=3.00D-01 FncErr=1.00D-07 GrdErr=1.00D-06 EigMax=2.50D+02 EigMin=1.00D-04
 Number of steps in this run=    114 maximum allowed number of steps=    114.
 GradGradGradGradGradGradGradGradGradGradGradGradGradGradGradGradGradGrad

                          Input orientation:                          
 ---------------------------------------------------------------------
 Center     Atomic      Atomic             Coordinates (Angstroms)
 Number     Number       Type             X           Y           Z
 ---------------------------------------------------------------------
      1          6           0        2.117893   -1.401983   -1.025305
      2          6           0        3.342299   -0.602315   -1.076253
      3          6           0        3.915648    0.310577    0.067669
      4          6           0        4.229578    1.427771   -0.988145
      5          6           0        3.689448    0.507376   -2.137422
      6          6           0        5.124166   -0.090713   -2.337514
      7          6           0        4.824087   -1.208934   -1.286831
      8          6           0        5.669735    0.833226   -1.190174
      9          6           0        5.349982   -0.288267   -0.137678
     10          1           0        6.595321    1.410648   -1.233343
     11          1           0        3.985892    2.484769   -0.870280
     12          1           0        3.011944    0.818395   -2.934321
     13          1           0        5.607688   -0.255335   -3.302240
     14          1           0        3.425402    0.464122    1.030415
     15          1           0        6.015162   -0.613248    0.664681
     16          1           0        5.029726   -2.274656   -1.403703
     17          1           0        1.849234   -1.923798   -1.948161
     18          1           0        1.282181   -0.694314   -0.921422
     19          1           0        1.977972   -2.018117   -0.132789
 ---------------------------------------------------------------------
                    Distance matrix (angstroms):
                    1          2          3          4          5
     1  C    0.000000
     2  C    1.463296   0.000000
     3  C    2.712817   1.571833   0.000000
     4  C    3.531020   2.217268   1.568891   0.000000
     5  C    2.711502   1.574168   2.225381   1.568345   0.000000
     6  C    3.532563   2.242223   2.721480   2.219657   1.567215
     7  C    2.725647   1.614938   2.229091   2.719351   2.226349
     8  C    4.199872   2.736917   2.220845   1.571099   2.219233
     9  C    3.531946   2.238379   1.567831   2.218870   2.718345
    10  H    5.291648   3.828688   3.175443   2.378477   3.174485
    11  H    4.315124   3.160178   2.368922   1.091109   2.367195
    12  H    3.061658   2.362196   3.175926   2.375200   1.091234
    13  H    4.321794   3.194902   3.813075   3.176015   2.370269
    14  H    3.068862   2.362677   1.091236   2.376952   3.179117
    15  H    4.320516   3.189854   2.370197   3.175831   3.810056
    16  H    3.063252   2.398199   3.176403   3.810629   3.174018
    17  H    1.093678   2.176186   3.650489   4.221455   3.054966
    18  H    1.100000   2.067975   2.987182   3.632471   2.952566
    19  H    1.093519   2.180827   3.036048   4.204225   3.650455
                    6          7          8          9         10
     6  C    0.000000
     7  C    1.563458   0.000000
     8  C    1.570891   2.212438   0.000000
     9  C    2.220202   1.563568   1.570903   0.000000
    10  H    2.374358   3.162648   1.091783   2.374376   0.000000
    11  H    3.175146   3.810450   2.380179   3.176031   2.845113
    12  H    2.375739   3.179331   3.179013   3.809506   4.010571
    13  H    1.091600   2.363314   2.376897   3.175209   2.833947
    14  H    3.812688   3.181991   3.178724   2.373718   4.008603
    15  H    3.174916   2.362605   2.377413   1.091722   2.834649
    16  H    2.377084   1.091655   3.180273   2.377209   4.007690
    17  H    3.773192   3.130198   4.771997   4.267089   5.844214
    18  H    4.138900   3.597701   4.653626   4.162467   5.723427
    19  H    4.298166   3.175998   4.783026   3.789836   5.855558
                   11         12         13         14         15
    11  H    0.000000
    12  H    2.825888   0.000000
    13  H    4.006597   2.833046   0.000000
    14  H    2.830160   4.001948   4.904273   0.000000
    15  H    4.008959   4.901197   4.003823   2.828665   0.000000
    16  H    4.901658   3.997649   2.831279   3.999961   2.830119
    17  H    5.016233   3.137519   4.329350   4.130179   5.089149
    18  H    4.173636   3.054854   4.956915   3.121704   4.992334
    19  H    4.985140   4.118675   5.131048   3.099937   4.348393
                   16         17         18         19
    16  H    0.000000
    17  H    3.245777   0.000000
    18  H    4.095627   1.699227   0.000000
    19  H    3.315756   1.822373   1.690716   0.000000
 Stoichiometry    C9H10
 Framework group  C1[X(C9H10)]
 Deg. of freedom    51
 Full point group                 C1      NOp   1
 Largest Abelian subgroup         C1      NOp   1
 Largest concise Abelian subgroup C1      NOp   1
                         Standard orientation:                         
 ---------------------------------------------------------------------
 Center     Atomic      Atomic             Coordinates (Angstroms)
 Number     Number       Type             X           Y           Z
 ---------------------------------------------------------------------
      1          6           0       -2.457236    0.008048   -0.044501
      2          6           0       -0.994747   -0.003564    0.002677
      3          6           0       -0.078671   -1.208450    0.426604
      4          6           0        0.812455   -0.228520    1.267466
      5          6           0       -0.078926    0.981862    0.820120
      6          6           0        0.844164    1.205477   -0.426501
      7          6           0       -0.035456    0.230599   -1.275194
      8          6           0        1.742108   -0.003249    0.021131
      9          6           0        0.843916   -0.979539   -0.820204
     10          1           0        2.833813   -0.005669    0.033932
     11          1           0        1.147864   -0.410651    2.289645
     12          1           0       -0.463290    1.764017    1.476847
     13          1           0        1.211375    2.173954   -0.771173
     14          1           0       -0.457289   -2.174185    0.765428
     15          1           0        1.210288   -1.766141   -1.482689
     16          1           0       -0.407921    0.412659   -2.285063
     17          1           0       -2.919352    0.964628   -0.304378
     18          1           0       -2.808016   -0.132292    0.988581
     19          1           0       -2.933108   -0.842303   -0.540718
 ---------------------------------------------------------------------
 Rotational constants (GHZ):           3.2820565           1.9374030           1.9352995
 Standard basis: 6-31G(d) (6D, 7F)
 There are   155 symmetry adapted cartesian basis functions of A   symmetry.
 There are   155 symmetry adapted basis functions of A   symmetry.
   155 basis functions,   292 primitive gaussians,   155 cartesian basis functions
    32 alpha electrons       32 beta electrons
       nuclear repulsion energy       449.9412884393 Hartrees.
 NAtoms=   19 NActive=   19 NUniq=   19 SFac= 1.00D+00 NAtFMM=   60 NAOKFM=F Big=F
 Integral buffers will be    131072 words long.
 Raffenetti 2 integral format.
 Two-electron integral symmetry is turned on.
 One-electron integrals computed using PRISM.
 NBasis=   155 RedAO= T EigKep=  1.20D-04  NBF=   155
 NBsUse=   155 1.00D-06 EigRej= -1.00D+00 NBFU=   155
 ExpMin= 1.61D-01 ExpMax= 3.05D+03 ExpMxC= 4.57D+02 IAcc=3 IRadAn=         5 AccDes= 0.00D+00
 Harris functional with IExCor=  402 and IRadAn=       5 diagonalized for initial guess.
 HarFok:  IExCor=  402 AccDes= 0.00D+00 IRadAn=         5 IDoV= 1 UseB2=F ITyADJ=14
 ICtDFT=  3500011 ScaDFX=  1.000000  1.000000  1.000000  1.000000
 FoFCou: FMM=F IPFlag=           0 FMFlag=      100000 FMFlg1=           0
         NFxFlg=           0 DoJE=T BraDBF=F KetDBF=T FulRan=T
         wScrn=  0.000000 ICntrl=       500 IOpCl=  0 I1Cent=   200000004 NGrid=           0
         NMat0=    1 NMatS0=      1 NMatT0=    0 NMatD0=    1 NMtDS0=    0 NMtDT0=    0
 Petite list used in FoFCou.
 Initial guess <Sx>= 0.0000 <Sy>= 0.0000 <Sz>= 0.0000 <S**2>=-0.0000 S=-0.0000
 Keep R1 and R2 ints in memory in canonical form, NReq=150105070.
 Requested convergence on RMS density matrix=1.00D-08 within 128 cycles.
 Requested convergence on MAX density matrix=1.00D-06.
 Requested convergence on             energy=1.00D-06.
 No special actions if energy rises.
 Integral accuracy reduced to 1.0D-05 until final iterations.
 Initial convergence to 1.0D-05 achieved.  Increase integral accuracy.
 SCF Done:  E(UB3LYP) =  -348.775839393     A.U. after   12 cycles
            NFock= 12  Conv=0.36D-08     -V/T= 2.0090
 <Sx>= 0.0000 <Sy>= 0.0000 <Sz>= 0.0000 <S**2>=-0.0000 S=-0.0000
 <L.S>=  0.00000000000    
 Annihilation of the first spin contaminant:
 S**2 before annihilation    -0.0000,   after     0.0000
 QCSCF skips out because SCF is already converged.

 **********************************************************************

            Population analysis using the SCF Density.

 **********************************************************************

 Orbital symmetries:
 Alpha Orbitals:
       Occupied  (A) (A) (A) (A) (A) (A) (A) (A) (A) (A) (A) (A)
                 (A) (A) (A) (A) (A) (A) (A) (A) (A) (A) (A) (A)
                 (A) (A) (A) (A) (A) (A) (A) (A)
       Virtual   (A) (A) (A) (A) (A) (A) (A) (A) (A) (A) (A) (A)
                 (A) (A) (A) (A) (A) (A) (A) (A) (A) (A) (A) (A)
                 (A) (A) (A) (A) (A) (A) (A) (A) (A) (A) (A) (A)
                 (A) (A) (A) (A) (A) (A) (A) (A) (A) (A) (A) (A)
                 (A) (A) (A) (A) (A) (A) (A) (A) (A) (A) (A) (A)
                 (A) (A) (A) (A) (A) (A) (A) (A) (A) (A) (A) (A)
                 (A) (A) (A) (A) (A) (A) (A) (A) (A) (A) (A) (A)
                 (A) (A) (A) (A) (A) (A) (A) (A) (A) (A) (A) (A)
                 (A) (A) (A) (A) (A) (A) (A) (A) (A) (A) (A) (A)
                 (A) (A) (A) (A) (A) (A) (A) (A) (A) (A) (A) (A)
                 (A) (A) (A)
 Beta  Orbitals:
       Occupied  (A) (A) (A) (A) (A) (A) (A) (A) (A) (A) (A) (A)
                 (A) (A) (A) (A) (A) (A) (A) (A) (A) (A) (A) (A)
                 (A) (A) (A) (A) (A) (A) (A) (A)
       Virtual   (A) (A) (A) (A) (A) (A) (A) (A) (A) (A) (A) (A)
                 (A) (A) (A) (A) (A) (A) (A) (A) (A) (A) (A) (A)
                 (A) (A) (A) (A) (A) (A) (A) (A) (A) (A) (A) (A)
                 (A) (A) (A) (A) (A) (A) (A) (A) (A) (A) (A) (A)
                 (A) (A) (A) (A) (A) (A) (A) (A) (A) (A) (A) (A)
                 (A) (A) (A) (A) (A) (A) (A) (A) (A) (A) (A) (A)
                 (A) (A) (A) (A) (A) (A) (A) (A) (A) (A) (A) (A)
                 (A) (A) (A) (A) (A) (A) (A) (A) (A) (A) (A) (A)
                 (A) (A) (A) (A) (A) (A) (A) (A) (A) (A) (A) (A)
                 (A) (A) (A) (A) (A) (A) (A) (A) (A) (A) (A) (A)
                 (A) (A) (A)
 The electronic state is 1-A.
 Alpha  occ. eigenvalues --  -10.18300 -10.17924 -10.17909 -10.17799 -10.17798
 Alpha  occ. eigenvalues --  -10.17663 -10.17657 -10.17422 -10.17027  -0.93377
 Alpha  occ. eigenvalues --   -0.75455  -0.71720  -0.71670  -0.67147  -0.55488
 Alpha  occ. eigenvalues --   -0.55229  -0.53850  -0.51191  -0.45537  -0.43921
 Alpha  occ. eigenvalues --   -0.43441  -0.41878  -0.41835  -0.40823  -0.39062
 Alpha  occ. eigenvalues --   -0.37159  -0.26715  -0.26151  -0.26076  -0.25800
 Alpha  occ. eigenvalues --   -0.25561  -0.24052
 Alpha virt. eigenvalues --    0.07328   0.08266   0.08638   0.09625   0.13428
 Alpha virt. eigenvalues --    0.15301   0.16030   0.16557   0.16816   0.17369
 Alpha virt. eigenvalues --    0.18487   0.18503   0.18669   0.20232   0.20689
 Alpha virt. eigenvalues --    0.21807   0.25776   0.32180   0.32416   0.33334
 Alpha virt. eigenvalues --    0.33986   0.34339   0.46768   0.48964   0.49191
 Alpha virt. eigenvalues --    0.52714   0.53676   0.54399   0.55347   0.55367
 Alpha virt. eigenvalues --    0.56558   0.59024   0.61651   0.61758   0.62431
 Alpha virt. eigenvalues --    0.70478   0.72240   0.74422   0.75598   0.75609
 Alpha virt. eigenvalues --    0.76194   0.79279   0.80431   0.80895   0.81628
 Alpha virt. eigenvalues --    0.81735   0.82722   0.83915   0.85332   0.88396
 Alpha virt. eigenvalues --    0.89789   0.90445   0.90658   0.91788   0.92785
 Alpha virt. eigenvalues --    0.96493   1.13064   1.15343   1.23735   1.25895
 Alpha virt. eigenvalues --    1.26229   1.26506   1.29751   1.31112   1.33843
 Alpha virt. eigenvalues --    1.35328   1.48513   1.63823   1.65476   1.67796
 Alpha virt. eigenvalues --    1.67854   1.70105   1.79479   1.80769   1.88259
 Alpha virt. eigenvalues --    1.88418   1.89555   1.90275   1.91211   1.92445
 Alpha virt. eigenvalues --    1.93602   1.95225   1.97078   1.97734   2.05416
 Alpha virt. eigenvalues --    2.06351   2.06958   2.13551   2.14645   2.17711
 Alpha virt. eigenvalues --    2.24878   2.26929   2.30412   2.30513   2.31229
 Alpha virt. eigenvalues --    2.41323   2.48766   2.49876   2.50306   2.55001
 Alpha virt. eigenvalues --    2.55225   2.58456   2.59712   2.59804   2.80702
 Alpha virt. eigenvalues --    2.81307   2.82204   2.83395   2.84383   2.87114
 Alpha virt. eigenvalues --    2.90480   2.91764   2.96904   3.55193   4.14596
 Alpha virt. eigenvalues --    4.24994   4.40141   4.40273   4.45710   4.86750
 Alpha virt. eigenvalues --    4.87616   4.88475   6.37575
  Beta  occ. eigenvalues --  -10.18300 -10.17924 -10.17909 -10.17799 -10.17798
  Beta  occ. eigenvalues --  -10.17663 -10.17657 -10.17422 -10.17027  -0.93377
  Beta  occ. eigenvalues --   -0.75455  -0.71720  -0.71670  -0.67147  -0.55488
  Beta  occ. eigenvalues --   -0.55229  -0.53850  -0.51191  -0.45537  -0.43921
  Beta  occ. eigenvalues --   -0.43441  -0.41878  -0.41835  -0.40823  -0.39062
  Beta  occ. eigenvalues --   -0.37159  -0.26715  -0.26151  -0.26076  -0.25800
  Beta  occ. eigenvalues --   -0.25561  -0.24052
  Beta virt. eigenvalues --    0.07328   0.08266   0.08638   0.09625   0.13428
  Beta virt. eigenvalues --    0.15301   0.16030   0.16557   0.16816   0.17369
  Beta virt. eigenvalues --    0.18487   0.18503   0.18669   0.20232   0.20689
  Beta virt. eigenvalues --    0.21807   0.25776   0.32180   0.32416   0.33334
  Beta virt. eigenvalues --    0.33986   0.34339   0.46768   0.48964   0.49191
  Beta virt. eigenvalues --    0.52714   0.53676   0.54399   0.55347   0.55367
  Beta virt. eigenvalues --    0.56558   0.59024   0.61651   0.61758   0.62431
  Beta virt. eigenvalues --    0.70478   0.72240   0.74422   0.75598   0.75609
  Beta virt. eigenvalues --    0.76194   0.79279   0.80431   0.80895   0.81628
  Beta virt. eigenvalues --    0.81735   0.82722   0.83915   0.85332   0.88396
  Beta virt. eigenvalues --    0.89789   0.90445   0.90658   0.91788   0.92785
  Beta virt. eigenvalues --    0.96493   1.13064   1.15343   1.23735   1.25895
  Beta virt. eigenvalues --    1.26229   1.26506   1.29751   1.31112   1.33843
  Beta virt. eigenvalues --    1.35328   1.48513   1.63823   1.65476   1.67796
  Beta virt. eigenvalues --    1.67854   1.70105   1.79479   1.80769   1.88259
  Beta virt. eigenvalues --    1.88418   1.89555   1.90275   1.91211   1.92445
  Beta virt. eigenvalues --    1.93602   1.95225   1.97078   1.97734   2.05416
  Beta virt. eigenvalues --    2.06351   2.06958   2.13551   2.14645   2.17711
  Beta virt. eigenvalues --    2.24878   2.26929   2.30412   2.30513   2.31229
  Beta virt. eigenvalues --    2.41323   2.48766   2.49876   2.50306   2.55001
  Beta virt. eigenvalues --    2.55225   2.58456   2.59712   2.59804   2.80702
  Beta virt. eigenvalues --    2.81307   2.82204   2.83395   2.84383   2.87114
  Beta virt. eigenvalues --    2.90480   2.91764   2.96904   3.55193   4.14596
  Beta virt. eigenvalues --    4.24994   4.40141   4.40273   4.45710   4.86750
  Beta virt. eigenvalues --    4.87616   4.88475   6.37575
          Condensed to atoms (all electrons):
               1          2          3          4          5          6
     1  C    5.224618   0.359731  -0.049701   0.008974  -0.049755   0.008417
     2  C    0.359731   4.841241   0.350284  -0.062536   0.350565  -0.060762
     3  C   -0.049701   0.350284   5.135011   0.327277  -0.093905  -0.023278
     4  C    0.008974  -0.062536   0.327277   5.108101   0.326551  -0.073578
     5  C   -0.049755   0.350565  -0.093905   0.326551   5.137942   0.332054
     6  C    0.008417  -0.060762  -0.023278  -0.073578   0.332054   5.095826
     7  C   -0.049537   0.352449  -0.094715  -0.025005  -0.094740   0.328409
     8  C    0.000392  -0.031000  -0.071648   0.326284  -0.071399   0.328019
     9  C    0.008456  -0.060444   0.332548  -0.073409  -0.023773  -0.074164
    10  H    0.000060   0.000736   0.007025  -0.031133   0.007011  -0.031589
    11  H   -0.000435   0.006635  -0.031638   0.342009  -0.031737   0.007891
    12  H   -0.006045  -0.038349   0.009346  -0.034328   0.341534  -0.035138
    13  H   -0.000430   0.006623  -0.000170   0.007988  -0.032654   0.343636
    14  H   -0.006003  -0.038366   0.342091  -0.034468   0.009407  -0.000414
    15  H   -0.000443   0.006626  -0.032661   0.007933  -0.000155   0.008074
    16  H   -0.005095  -0.034167   0.009070  -0.000343   0.009108  -0.035130
    17  H    0.360075  -0.020761   0.004859  -0.000259  -0.002026   0.000570
    18  H    0.351372  -0.035085  -0.002947   0.000590  -0.004321  -0.000281
    19  H    0.359853  -0.020430  -0.002833  -0.000267   0.004889  -0.000217
               7          8          9         10         11         12
     1  C   -0.049537   0.000392   0.008456   0.000060  -0.000435  -0.006045
     2  C    0.352449  -0.031000  -0.060444   0.000736   0.006635  -0.038349
     3  C   -0.094715  -0.071648   0.332548   0.007025  -0.031638   0.009346
     4  C   -0.025005   0.326284  -0.073409  -0.031133   0.342009  -0.034328
     5  C   -0.094740  -0.071399  -0.023773   0.007011  -0.031737   0.341534
     6  C    0.328409   0.328019  -0.074164  -0.031589   0.007891  -0.035138
     7  C    5.137784  -0.072272   0.327857   0.007165  -0.000164   0.009624
     8  C   -0.072272   5.108444   0.327911   0.340832  -0.032464   0.008510
     9  C    0.327857   0.327911   5.096723  -0.031623   0.007894  -0.000397
    10  H    0.007165   0.340832  -0.031623   0.632968  -0.004063  -0.000391
    11  H   -0.000164  -0.032464   0.007894  -0.004063   0.632725  -0.004236
    12  H    0.009624   0.008510  -0.000397  -0.000391  -0.004236   0.645920
    13  H   -0.032420  -0.033329   0.008115  -0.004129  -0.000362  -0.003940
    14  H    0.009522   0.008513  -0.035227  -0.000388  -0.004168  -0.000308
    15  H   -0.032329  -0.033044   0.343258  -0.004159  -0.000364   0.000069
    16  H    0.341552   0.008691  -0.034895  -0.000389   0.000068  -0.000341
    17  H   -0.003318  -0.000024  -0.000218  -0.000001   0.000011   0.001270
    18  H    0.006128  -0.000035  -0.000278  -0.000001  -0.000083   0.002015
    19  H   -0.002476  -0.000022   0.000529  -0.000001   0.000012  -0.000077
              13         14         15         16         17         18
     1  C   -0.000430  -0.006003  -0.000443  -0.005095   0.360075   0.351372
     2  C    0.006623  -0.038366   0.006626  -0.034167  -0.020761  -0.035085
     3  C   -0.000170   0.342091  -0.032661   0.009070   0.004859  -0.002947
     4  C    0.007988  -0.034468   0.007933  -0.000343  -0.000259   0.000590
     5  C   -0.032654   0.009407  -0.000155   0.009108  -0.002026  -0.004321
     6  C    0.343636  -0.000414   0.008074  -0.035130   0.000570  -0.000281
     7  C   -0.032420   0.009522  -0.032329   0.341552  -0.003318   0.006128
     8  C   -0.033329   0.008513  -0.033044   0.008691  -0.000024  -0.000035
     9  C    0.008115  -0.035227   0.343258  -0.034895  -0.000218  -0.000278
    10  H   -0.004129  -0.000388  -0.004159  -0.000389  -0.000001  -0.000001
    11  H   -0.000362  -0.004168  -0.000364   0.000068   0.000011  -0.000083
    12  H   -0.003940  -0.000308   0.000069  -0.000341   0.001270   0.002015
    13  H    0.634419   0.000068  -0.000344  -0.004228  -0.000052   0.000015
    14  H    0.000068   0.645851  -0.003949  -0.000334  -0.000075   0.001602
    15  H   -0.000344  -0.003949   0.634446  -0.004270   0.000008   0.000015
    16  H   -0.004228  -0.000334  -0.004270   0.643180   0.001079  -0.000103
    17  H   -0.000052  -0.000075   0.000008   0.001079   0.576957  -0.040022
    18  H    0.000015   0.001602   0.000015  -0.000103  -0.040022   0.624389
    19  H    0.000008   0.001509  -0.000049   0.000869  -0.027011  -0.041306
              19
     1  C    0.359853
     2  C   -0.020430
     3  C   -0.002833
     4  C   -0.000267
     5  C    0.004889
     6  C   -0.000217
     7  C   -0.002476
     8  C   -0.000022
     9  C    0.000529
    10  H   -0.000001
    11  H    0.000012
    12  H   -0.000077
    13  H    0.000008
    14  H    0.001509
    15  H   -0.000049
    16  H    0.000869
    17  H   -0.027011
    18  H   -0.041306
    19  H    0.577864
          Atomic-Atomic Spin Densities.
               1          2          3          4          5          6
     1  C    0.000000  -0.000000   0.000000  -0.000000   0.000000  -0.000000
     2  C   -0.000000  -0.000000   0.000000  -0.000000  -0.000000  -0.000000
     3  C    0.000000   0.000000  -0.000000   0.000000   0.000000   0.000000
     4  C   -0.000000  -0.000000   0.000000   0.000000  -0.000000  -0.000000
     5  C    0.000000  -0.000000   0.000000  -0.000000   0.000000   0.000000
     6  C   -0.000000  -0.000000   0.000000  -0.000000   0.000000  -0.000000
     7  C    0.000000   0.000000  -0.000000  -0.000000   0.000000   0.000000
     8  C    0.000000   0.000000  -0.000000   0.000000  -0.000000   0.000000
     9  C   -0.000000   0.000000  -0.000000   0.000000  -0.000000   0.000000
    10  H    0.000000  -0.000000   0.000000  -0.000000   0.000000  -0.000000
    11  H   -0.000000   0.000000   0.000000   0.000000   0.000000  -0.000000
    12  H    0.000000   0.000000  -0.000000  -0.000000  -0.000000   0.000000
    13  H    0.000000   0.000000  -0.000000   0.000000  -0.000000  -0.000000
    14  H    0.000000   0.000000   0.000000   0.000000  -0.000000   0.000000
    15  H   -0.000000  -0.000000   0.000000  -0.000000   0.000000  -0.000000
    16  H    0.000000  -0.000000  -0.000000   0.000000   0.000000   0.000000
    17  H   -0.000000   0.000000   0.000000  -0.000000   0.000000  -0.000000
    18  H    0.000000  -0.000000  -0.000000   0.000000  -0.000000   0.000000
    19  H    0.000000  -0.000000  -0.000000   0.000000  -0.000000   0.000000
               7          8          9         10         11         12
     1  C    0.000000   0.000000  -0.000000   0.000000  -0.000000   0.000000
     2  C    0.000000   0.000000   0.000000  -0.000000   0.000000   0.000000
     3  C   -0.000000  -0.000000  -0.000000   0.000000   0.000000  -0.000000
     4  C   -0.000000   0.000000   0.000000  -0.000000   0.000000  -0.000000
     5  C    0.000000  -0.000000  -0.000000   0.000000   0.000000  -0.000000
     6  C    0.000000   0.000000   0.000000  -0.000000  -0.000000   0.000000
     7  C    0.000000  -0.000000  -0.000000   0.000000  -0.000000  -0.000000
     8  C   -0.000000  -0.000000   0.000000  -0.000000   0.000000  -0.000000
     9  C   -0.000000   0.000000   0.000000  -0.000000   0.000000  -0.000000
    10  H    0.000000  -0.000000  -0.000000  -0.000000  -0.000000   0.000000
    11  H   -0.000000   0.000000   0.000000  -0.000000   0.000000   0.000000
    12  H   -0.000000  -0.000000  -0.000000   0.000000   0.000000   0.000000
    13  H   -0.000000  -0.000000   0.000000  -0.000000   0.000000  -0.000000
    14  H    0.000000  -0.000000  -0.000000   0.000000  -0.000000  -0.000000
    15  H    0.000000   0.000000  -0.000000   0.000000  -0.000000   0.000000
    16  H    0.000000  -0.000000   0.000000  -0.000000   0.000000  -0.000000
    17  H    0.000000   0.000000  -0.000000  -0.000000  -0.000000   0.000000
    18  H   -0.000000  -0.000000   0.000000  -0.000000   0.000000  -0.000000
    19  H   -0.000000  -0.000000   0.000000   0.000000   0.000000  -0.000000
              13         14         15         16         17         18
     1  C    0.000000   0.000000  -0.000000   0.000000  -0.000000   0.000000
     2  C    0.000000   0.000000  -0.000000  -0.000000   0.000000  -0.000000
     3  C   -0.000000   0.000000   0.000000  -0.000000   0.000000  -0.000000
     4  C    0.000000   0.000000  -0.000000   0.000000  -0.000000   0.000000
     5  C   -0.000000  -0.000000   0.000000   0.000000   0.000000  -0.000000
     6  C   -0.000000   0.000000  -0.000000   0.000000  -0.000000   0.000000
     7  C   -0.000000   0.000000   0.000000   0.000000   0.000000  -0.000000
     8  C   -0.000000  -0.000000   0.000000  -0.000000   0.000000  -0.000000
     9  C    0.000000  -0.000000  -0.000000   0.000000  -0.000000   0.000000
    10  H   -0.000000   0.000000   0.000000  -0.000000  -0.000000  -0.000000
    11  H    0.000000  -0.000000  -0.000000   0.000000  -0.000000   0.000000
    12  H   -0.000000  -0.000000   0.000000  -0.000000   0.000000  -0.000000
    13  H    0.000000   0.000000  -0.000000  -0.000000  -0.000000   0.000000
    14  H    0.000000   0.000000   0.000000  -0.000000   0.000000  -0.000000
    15  H   -0.000000   0.000000  -0.000000   0.000000   0.000000   0.000000
    16  H   -0.000000  -0.000000   0.000000   0.000000   0.000000  -0.000000
    17  H   -0.000000   0.000000   0.000000   0.000000  -0.000000  -0.000000
    18  H    0.000000  -0.000000   0.000000  -0.000000  -0.000000  -0.000000
    19  H    0.000000  -0.000000   0.000000   0.000000  -0.000000   0.000000
              19
     1  C    0.000000
     2  C   -0.000000
     3  C   -0.000000
     4  C    0.000000
     5  C   -0.000000
     6  C    0.000000
     7  C   -0.000000
     8  C   -0.000000
     9  C    0.000000
    10  H    0.000000
    11  H    0.000000
    12  H   -0.000000
    13  H    0.000000
    14  H   -0.000000
    15  H    0.000000
    16  H    0.000000
    17  H   -0.000000
    18  H    0.000000
    19  H   -0.000000
 Mulliken charges and spin densities:
               1          2
     1  C   -0.514504   0.000000
     2  C    0.127012  -0.000000
     3  C   -0.114013  -0.000000
     4  C   -0.120381   0.000000
     5  C   -0.114595   0.000000
     6  C   -0.118345  -0.000000
     7  C   -0.113513   0.000000
     8  C   -0.112359  -0.000000
     9  C   -0.118863   0.000000
    10  H    0.112068  -0.000000
    11  H    0.112468   0.000000
    12  H    0.105260   0.000000
    13  H    0.111186  -0.000000
    14  H    0.105136   0.000000
    15  H    0.111336  -0.000000
    16  H    0.105677   0.000000
    17  H    0.148938  -0.000000
    18  H    0.138335  -0.000000
    19  H    0.149156  -0.000000
 Sum of Mulliken charges =  -0.00000   0.00000
 Mulliken charges and spin densities with hydrogens summed into heavy atoms:
               1          2
     1  C   -0.078074   0.000000
     2  C    0.127012  -0.000000
     3  C   -0.008877  -0.000000
     4  C   -0.007912   0.000000
     5  C   -0.009336   0.000000
     6  C   -0.007160  -0.000000
     7  C   -0.007835   0.000000
     8  C   -0.000292  -0.000000
     9  C   -0.007526   0.000000
 Electronic spatial extent (au):  <R**2>=            850.7480
 Charge=              0.0000 electrons
 Dipole moment (field-independent basis, Debye):
    X=             -0.1694    Y=             -0.0141    Z=              0.0801  Tot=              0.1879
 Quadrupole moment (field-independent basis, Debye-Ang):
   XX=            -52.7098   YY=            -52.6657   ZZ=            -53.1177
   XY=              0.0333   XZ=             -0.1291   YZ=              0.0485
 Traceless Quadrupole moment (field-independent basis, Debye-Ang):
   XX=              0.1213   YY=              0.1653   ZZ=             -0.2866
   XY=              0.0333   XZ=             -0.1291   YZ=              0.0485
 Octapole moment (field-independent basis, Debye-Ang**2):
  XXX=              0.5781  YYY=              0.2442  ZZZ=              0.6027  XYY=             -1.3328
  XXY=             -0.0522  XXZ=              0.0918  XZZ=              0.1240  YZZ=             -0.2625
  YYZ=             -0.5469  XYZ=             -0.1691
 Hexadecapole moment (field-independent basis, Debye-Ang**3):
 XXXX=           -596.4769 YYYY=           -279.1619 ZZZZ=           -278.5812 XXXY=              0.2458
 XXXZ=              0.1701 YYYX=              1.4564 YYYZ=              0.1173 ZZZX=              2.0900
 ZZZY=             -0.0788 XXYY=           -144.2958 XXZZ=           -148.8694 YYZZ=            -93.2158
 XXYZ=              0.5707 YYXZ=             -2.1492 ZZXY=             -1.4433
 N-N= 4.499412884393D+02 E-N=-1.707640687199D+03  KE= 3.456523750675D+02
                          Isotropic Fermi Contact Couplings
        Atom                 a.u.       MegaHertz       Gauss      10(-4) cm-1
     1  C(13)              0.00000       0.00000       0.00000       0.00000
     2  C(13)              0.00000       0.00000       0.00000       0.00000
     3  C(13)              0.00000       0.00000       0.00000       0.00000
     4  C(13)             -0.00000      -0.00000      -0.00000      -0.00000
     5  C(13)              0.00000       0.00000       0.00000       0.00000
     6  C(13)              0.00000       0.00000       0.00000       0.00000
     7  C(13)             -0.00000      -0.00000      -0.00000      -0.00000
     8  C(13)             -0.00000      -0.00000      -0.00000      -0.00000
     9  C(13)              0.00000       0.00000       0.00000       0.00000
    10  H(1)               0.00000       0.00000       0.00000       0.00000
    11  H(1)               0.00000       0.00000       0.00000       0.00000
    12  H(1)               0.00000       0.00000       0.00000       0.00000
    13  H(1)               0.00000       0.00000       0.00000       0.00000
    14  H(1)               0.00000       0.00000       0.00000       0.00000
    15  H(1)               0.00000       0.00000       0.00000       0.00000
    16  H(1)               0.00000       0.00000       0.00000       0.00000
    17  H(1)              -0.00000      -0.00000      -0.00000      -0.00000
    18  H(1)               0.00000       0.00000       0.00000       0.00000
    19  H(1)              -0.00000      -0.00000      -0.00000      -0.00000
 --------------------------------------------------------
       Center         ----  Spin Dipole Couplings  ----
                      3XX-RR        3YY-RR        3ZZ-RR
 --------------------------------------------------------
     1   Atom        0.000000      0.000000      0.000000
     2   Atom        0.000000      0.000000      0.000000
     3   Atom        0.000000      0.000000      0.000000
     4   Atom        0.000000      0.000000      0.000000
     5   Atom        0.000000      0.000000      0.000000
     6   Atom        0.000000      0.000000      0.000000
     7   Atom        0.000000      0.000000      0.000000
     8   Atom        0.000000      0.000000      0.000000
     9   Atom        0.000000      0.000000      0.000000
    10   Atom        0.000000      0.000000      0.000000
    11   Atom        0.000000      0.000000      0.000000
    12   Atom        0.000000      0.000000      0.000000
    13   Atom        0.000000      0.000000      0.000000
    14   Atom        0.000000      0.000000      0.000000
    15   Atom        0.000000      0.000000      0.000000
    16   Atom        0.000000      0.000000      0.000000
    17   Atom        0.000000      0.000000      0.000000
    18   Atom        0.000000      0.000000      0.000000
    19   Atom        0.000000      0.000000      0.000000
 --------------------------------------------------------
                        XY            XZ            YZ
 --------------------------------------------------------
     1   Atom        0.000000      0.000000      0.000000
     2   Atom        0.000000      0.000000      0.000000
     3   Atom        0.000000      0.000000      0.000000
     4   Atom        0.000000      0.000000      0.000000
     5   Atom        0.000000      0.000000      0.000000
     6   Atom        0.000000      0.000000      0.000000
     7   Atom        0.000000      0.000000      0.000000
     8   Atom        0.000000      0.000000      0.000000
     9   Atom        0.000000      0.000000      0.000000
    10   Atom        0.000000      0.000000      0.000000
    11   Atom        0.000000      0.000000      0.000000
    12   Atom        0.000000      0.000000      0.000000
    13   Atom        0.000000      0.000000      0.000000
    14   Atom        0.000000      0.000000      0.000000
    15   Atom        0.000000      0.000000      0.000000
    16   Atom        0.000000      0.000000      0.000000
    17   Atom        0.000000      0.000000      0.000000
    18   Atom        0.000000      0.000000      0.000000
    19   Atom        0.000000      0.000000      0.000000
 --------------------------------------------------------


 ---------------------------------------------------------------------------------
              Anisotropic Spin Dipole Couplings in Principal Axis System
 ---------------------------------------------------------------------------------

       Atom             a.u.   MegaHertz   Gauss  10(-4) cm-1        Axes

              Baa     0.0000     0.000     0.000     0.000  1.0000  0.0000  0.0000
     1 C(13)  Bbb     0.0000     0.000     0.000     0.000 -0.0000  1.0000  0.0000
              Bcc     0.0000     0.000     0.000     0.000  0.0000  0.0000  1.0000
 
              Baa     0.0000     0.000     0.000     0.000  1.0000  0.0000  0.0000
     2 C(13)  Bbb     0.0000     0.000     0.000     0.000 -0.0000  1.0000  0.0000
              Bcc     0.0000     0.000     0.000     0.000  0.0000  0.0000  1.0000
 
              Baa     0.0000     0.000     0.000     0.000  1.0000  0.0000  0.0000
     3 C(13)  Bbb     0.0000     0.000     0.000     0.000 -0.0000  1.0000  0.0000
              Bcc     0.0000     0.000     0.000     0.000  0.0000  0.0000  1.0000
 
              Baa     0.0000     0.000     0.000     0.000  1.0000  0.0000  0.0000
     4 C(13)  Bbb     0.0000     0.000     0.000     0.000 -0.0000  1.0000  0.0000
              Bcc     0.0000     0.000     0.000     0.000  0.0000  0.0000  1.0000
 
              Baa     0.0000     0.000     0.000     0.000  1.0000  0.0000  0.0000
     5 C(13)  Bbb     0.0000     0.000     0.000     0.000 -0.0000  1.0000  0.0000
              Bcc     0.0000     0.000     0.000     0.000  0.0000  0.0000  1.0000
 
              Baa     0.0000     0.000     0.000     0.000  1.0000  0.0000  0.0000
     6 C(13)  Bbb     0.0000     0.000     0.000     0.000 -0.0000  1.0000  0.0000
              Bcc     0.0000     0.000     0.000     0.000  0.0000  0.0000  1.0000
 
              Baa     0.0000     0.000     0.000     0.000  1.0000  0.0000  0.0000
     7 C(13)  Bbb     0.0000     0.000     0.000     0.000 -0.0000  1.0000  0.0000
              Bcc     0.0000     0.000     0.000     0.000  0.0000  0.0000  1.0000
 
              Baa     0.0000     0.000     0.000     0.000  1.0000  0.0000  0.0000
     8 C(13)  Bbb     0.0000     0.000     0.000     0.000 -0.0000  1.0000  0.0000
              Bcc     0.0000     0.000     0.000     0.000  0.0000  0.0000  1.0000
 
              Baa     0.0000     0.000     0.000     0.000  1.0000  0.0000  0.0000
     9 C(13)  Bbb     0.0000     0.000     0.000     0.000 -0.0000  1.0000  0.0000
              Bcc     0.0000     0.000     0.000     0.000  0.0000  0.0000  1.0000
 
              Baa     0.0000     0.000     0.000     0.000  1.0000  0.0000  0.0000
    10 H(1)   Bbb     0.0000     0.000     0.000     0.000 -0.0000  1.0000  0.0000
              Bcc     0.0000     0.000     0.000     0.000  0.0000  0.0000  1.0000
 
              Baa     0.0000     0.000     0.000     0.000  1.0000  0.0000  0.0000
    11 H(1)   Bbb     0.0000     0.000     0.000     0.000 -0.0000  1.0000  0.0000
              Bcc     0.0000     0.000     0.000     0.000  0.0000  0.0000  1.0000
 
              Baa     0.0000     0.000     0.000     0.000  1.0000  0.0000  0.0000
    12 H(1)   Bbb     0.0000     0.000     0.000     0.000 -0.0000  1.0000  0.0000
              Bcc     0.0000     0.000     0.000     0.000  0.0000  0.0000  1.0000
 
              Baa     0.0000     0.000     0.000     0.000  1.0000  0.0000  0.0000
    13 H(1)   Bbb     0.0000     0.000     0.000     0.000 -0.0000  1.0000  0.0000
              Bcc     0.0000     0.000     0.000     0.000  0.0000  0.0000  1.0000
 
              Baa     0.0000     0.000     0.000     0.000  1.0000  0.0000  0.0000
    14 H(1)   Bbb     0.0000     0.000     0.000     0.000 -0.0000  1.0000  0.0000
              Bcc     0.0000     0.000     0.000     0.000  0.0000  0.0000  1.0000
 
              Baa     0.0000     0.000     0.000     0.000  1.0000  0.0000  0.0000
    15 H(1)   Bbb     0.0000     0.000     0.000     0.000 -0.0000  1.0000  0.0000
              Bcc     0.0000     0.000     0.000     0.000  0.0000  0.0000  1.0000
 
              Baa     0.0000     0.000     0.000     0.000  1.0000  0.0000  0.0000
    16 H(1)   Bbb     0.0000     0.000     0.000     0.000 -0.0000  1.0000  0.0000
              Bcc     0.0000     0.000     0.000     0.000  0.0000  0.0000  1.0000
 
              Baa     0.0000     0.000     0.000     0.000  1.0000  0.0000  0.0000
    17 H(1)   Bbb     0.0000     0.000     0.000     0.000 -0.0000  1.0000  0.0000
              Bcc     0.0000     0.000     0.000     0.000  0.0000  0.0000  1.0000
 
              Baa     0.0000     0.000     0.000     0.000  1.0000  0.0000  0.0000
    18 H(1)   Bbb     0.0000     0.000     0.000     0.000 -0.0000  1.0000  0.0000
              Bcc     0.0000     0.000     0.000     0.000  0.0000  0.0000  1.0000
 
              Baa     0.0000     0.000     0.000     0.000  1.0000  0.0000  0.0000
    19 H(1)   Bbb     0.0000     0.000     0.000     0.000 -0.0000  1.0000  0.0000
              Bcc     0.0000     0.000     0.000     0.000  0.0000  0.0000  1.0000
 

 ---------------------------------------------------------------------------------

 Calling FoFJK, ICntrl=      2127 FMM=F ISym2X=0 I1Cent= 0 IOpClX= 1 NMat=1 NMatS=1 NMatT=0.
 ***** Axes restored to original set *****
 -------------------------------------------------------------------
 Center     Atomic                   Forces (Hartrees/Bohr)
 Number     Number              X              Y              Z
 -------------------------------------------------------------------
      1        6          -0.040082667    0.013560327    0.004122569
      2        6           0.039173745   -0.009062372   -0.005444639
      3        6          -0.001051161    0.000225070   -0.000986711
      4        6           0.000482812    0.001628720    0.000125315
      5        6          -0.001955860   -0.000231010    0.001624486
      6        6           0.000103621   -0.000301131   -0.000599678
      7        6          -0.014124554    0.003269580    0.002364302
      8        6          -0.000235379    0.000647602    0.000207944
      9        6           0.000753716   -0.000288153    0.000773509
     10        1          -0.000140014    0.000409730    0.000057844
     11        1           0.000782129    0.000757146    0.000062975
     12        1          -0.000005904    0.001253895   -0.001154527
     13        1           0.000243180    0.000726669   -0.000228683
     14        1          -0.000003812    0.001067154    0.001119967
     15        1           0.000357778    0.000804390    0.000256661
     16        1           0.001394745   -0.000118247   -0.000112400
     17        1           0.008814842   -0.008801268   -0.000039891
     18        1          -0.004320277    0.003995355    0.000035315
     19        1           0.009813060   -0.009543457   -0.002184359
 -------------------------------------------------------------------
 Cartesian Forces:  Max     0.040082667 RMS     0.008455748

 GradGradGradGradGradGradGradGradGradGradGradGradGradGradGradGradGradGrad
 Berny optimization.
 FormGI is forming the generalized inverse of G from B-inverse, IUseBI=4.
 Internal  Forces:  Max     0.022065665 RMS     0.002327263
 Search for a local minimum.
 Step number   1 out of a maximum of  114
 All quantities printed in internal units (Hartrees-Bohrs-Radians)
 Mixed Optimization -- RFO/linear search
 Second derivative matrix not updated -- first step.
 ITU=  0
     Eigenvalues ---    0.01251   0.02082   0.02099   0.02105   0.02248
     Eigenvalues ---    0.02275   0.02762   0.02799   0.02868   0.03267
     Eigenvalues ---    0.03327   0.03445   0.03486   0.03550   0.04061
     Eigenvalues ---    0.04112   0.04138   0.04363   0.04674   0.04806
     Eigenvalues ---    0.06553   0.10874   0.10972   0.11145   0.11269
     Eigenvalues ---    0.11970   0.12177   0.12591   0.16000   0.16000
     Eigenvalues ---    0.16000   0.18928   0.19890   0.19989   0.20027
     Eigenvalues ---    0.20128   0.20242   0.25415   0.26075   0.26127
     Eigenvalues ---    0.33682   0.34391   0.34409   0.34607   0.34614
     Eigenvalues ---    0.34622   0.34628   0.34670   0.34670   0.34685
     Eigenvalues ---    0.36555
 RFO step:  Lambda=-8.54633498D-03 EMin= 1.25147344D-02
 Linear search not attempted -- first point.
 Iteration  1 RMS(Cart)=  0.02095063 RMS(Int)=  0.00182332
 Iteration  2 RMS(Cart)=  0.00136641 RMS(Int)=  0.00130871
 Iteration  3 RMS(Cart)=  0.00001055 RMS(Int)=  0.00130869
 Iteration  4 RMS(Cart)=  0.00000013 RMS(Int)=  0.00130869
 Variable       Old X    -DE/DX   Delta X   Delta X   Delta X     New X
                                 (Linear)    (Quad)   (Total)
    R1        2.76523   0.02207   0.00000   0.05898   0.05898   2.82421
    R2        2.06675   0.00207   0.00000   0.00587   0.00587   2.07262
    R3        2.07870   0.00586   0.00000   0.01696   0.01696   2.09565
    R4        2.06645   0.00234   0.00000   0.00663   0.00663   2.07308
    R5        2.97033   0.00141   0.00000   0.00722   0.00726   2.97759
    R6        2.97475   0.00076   0.00000   0.00390   0.00399   2.97873
    R7        3.05179  -0.00776   0.00000  -0.04265  -0.04272   3.00908
    R8        2.96477   0.00078   0.00000   0.00111   0.00103   2.96581
    R9        2.96277  -0.00215   0.00000  -0.00357  -0.00354   2.95923
   R10        2.06214   0.00114   0.00000   0.00321   0.00321   2.06535
   R11        2.96374   0.00110   0.00000   0.00193   0.00185   2.96559
   R12        2.96895  -0.00100   0.00000  -0.00428  -0.00426   2.96469
   R13        2.06190   0.00057   0.00000   0.00159   0.00159   2.06349
   R14        2.96161  -0.00207   0.00000  -0.00286  -0.00285   2.95876
   R15        2.06213   0.00120   0.00000   0.00339   0.00339   2.06552
   R16        2.95451   0.00108   0.00000   0.00631   0.00632   2.96083
   R17        2.96855   0.00073   0.00000   0.00115   0.00114   2.96969
   R18        2.06282   0.00020   0.00000   0.00056   0.00056   2.06339
   R19        2.95472   0.00124   0.00000   0.00642   0.00647   2.96118
   R20        2.06293   0.00039   0.00000   0.00110   0.00110   2.06403
   R21        2.96858   0.00054   0.00000   0.00048   0.00046   2.96904
   R22        2.06317   0.00010   0.00000   0.00027   0.00027   2.06344
   R23        2.06306   0.00017   0.00000   0.00047   0.00047   2.06353
    A1        2.02295  -0.00531   0.00000  -0.05506  -0.06187   1.96108
    A2        1.86233   0.00486   0.00000   0.07673   0.07803   1.94036
    A3        2.03018  -0.00643   0.00000  -0.06032  -0.06701   1.96316
    A4        1.77216   0.00464   0.00000   0.07123   0.07235   1.84451
    A5        1.96974   0.00093   0.00000  -0.05142  -0.06414   1.90560
    A6        1.76011   0.00559   0.00000   0.08023   0.08155   1.84166
    A7        2.21088  -0.00053   0.00000  -0.01110  -0.01144   2.19944
    A8        2.20587  -0.00064   0.00000  -0.01077  -0.01119   2.19468
    A9        2.17368   0.00012   0.00000   0.01714   0.01737   2.19105
   A10        1.57154  -0.00033   0.00000  -0.00738  -0.00749   1.56405
   A11        1.54916   0.00084   0.00000   0.00647   0.00647   1.55563
   A12        1.54534   0.00111   0.00000   0.00989   0.00990   1.55524
   A13        1.56759   0.00025   0.00000   0.00584   0.00586   1.57346
   A14        1.58735  -0.00091   0.00000  -0.00683  -0.00684   1.58051
   A15        2.16508   0.00082   0.00000   0.00761   0.00762   2.17271
   A16        1.57158   0.00025   0.00000   0.00020   0.00021   1.57180
   A17        2.19374  -0.00062   0.00000  -0.00686  -0.00690   2.18683
   A18        2.18989   0.00009   0.00000  -0.00010  -0.00011   2.18979
   A19        1.57714  -0.00024   0.00000  -0.00470  -0.00473   1.57241
   A20        1.57128  -0.00033   0.00000  -0.00040  -0.00039   1.57089
   A21        2.18028   0.00022   0.00000   0.00388   0.00388   2.18416
   A22        1.57017  -0.00023   0.00000  -0.00002  -0.00003   1.57014
   A23        2.17822   0.00016   0.00000   0.00425   0.00426   2.18248
   A24        2.19594   0.00019   0.00000  -0.00451  -0.00449   2.19144
   A25        1.56646   0.00036   0.00000   0.00668   0.00669   1.57314
   A26        1.58973  -0.00104   0.00000  -0.00932  -0.00932   1.58040
   A27        2.16071   0.00082   0.00000   0.00926   0.00928   2.16998
   A28        1.57304   0.00010   0.00000  -0.00024  -0.00020   1.57283
   A29        2.19161  -0.00055   0.00000  -0.00565  -0.00573   2.18588
   A30        2.19433   0.00013   0.00000  -0.00134  -0.00135   2.19297
   A31        1.58224  -0.00089   0.00000  -0.00414  -0.00415   1.57809
   A32        1.57103   0.00026   0.00000  -0.00024  -0.00027   1.57076
   A33        2.18448   0.00010   0.00000   0.00015   0.00018   2.18466
   A34        1.56729   0.00015   0.00000   0.00187   0.00191   1.56920
   A35        2.17861   0.00070   0.00000   0.00593   0.00592   2.18453
   A36        2.18995  -0.00046   0.00000  -0.00431  -0.00433   2.18563
   A37        1.56587   0.00081   0.00000   0.00355   0.00354   1.56941
   A38        1.56239   0.00107   0.00000   0.00679   0.00679   1.56918
   A39        2.15737  -0.00031   0.00000   0.00638   0.00641   2.16378
   A40        1.57901  -0.00033   0.00000  -0.00383  -0.00387   1.57514
   A41        2.20202  -0.00032   0.00000  -0.00484  -0.00489   2.19713
   A42        2.20206  -0.00042   0.00000  -0.00542  -0.00549   2.19656
   A43        1.56894  -0.00013   0.00000   0.00050   0.00051   1.56945
   A44        1.56822  -0.00006   0.00000   0.00065   0.00065   1.56887
   A45        2.19206   0.00011   0.00000  -0.00326  -0.00327   2.18879
   A46        1.56955   0.00003   0.00000  -0.00004  -0.00006   1.56950
   A47        2.18538   0.00004   0.00000   0.00148   0.00148   2.18686
   A48        2.18539  -0.00003   0.00000   0.00100   0.00101   2.18641
   A49        1.58426  -0.00100   0.00000  -0.00644  -0.00643   1.57783
   A50        1.57208   0.00014   0.00000  -0.00043  -0.00045   1.57163
   A51        2.18322   0.00020   0.00000   0.00109   0.00110   2.18433
   A52        1.56721   0.00016   0.00000   0.00207   0.00208   1.56930
   A53        2.17707   0.00072   0.00000   0.00682   0.00681   2.18388
   A54        2.19064  -0.00042   0.00000  -0.00451  -0.00452   2.18611
    D1        3.07512   0.00509   0.00000   0.08450   0.08113  -3.12694
    D2        0.92207   0.00733   0.00000   0.12826   0.12466   1.04673
    D3       -1.13676   0.00604   0.00000   0.10342   0.09993  -1.03683
    D4        1.11679  -0.00097   0.00000  -0.02388  -0.02382   1.09297
    D5       -1.03626   0.00126   0.00000   0.01988   0.01971  -1.01654
    D6       -3.09509  -0.00002   0.00000  -0.00496  -0.00501  -3.10010
    D7       -0.83049  -0.00768   0.00000  -0.14123  -0.13757  -0.96806
    D8       -2.98354  -0.00545   0.00000  -0.09747  -0.09404  -3.07758
    D9        1.24082  -0.00673   0.00000  -0.12230  -0.11877   1.12205
   D10       -2.38263   0.00095   0.00000   0.02320   0.02316  -2.35947
   D11        2.32902   0.00069   0.00000   0.02288   0.02287   2.35189
   D12       -0.03364   0.00086   0.00000   0.02432   0.02433  -0.00931
   D13        0.02154  -0.00082   0.00000  -0.01018  -0.01018   0.01136
   D14       -1.54999  -0.00108   0.00000  -0.01050  -0.01047  -1.56046
   D15        2.37053  -0.00090   0.00000  -0.00906  -0.00900   2.36153
   D16        1.56686   0.00030   0.00000  -0.00012  -0.00015   1.56670
   D17       -0.00467   0.00004   0.00000  -0.00044  -0.00045  -0.00512
   D18       -2.36734   0.00022   0.00000   0.00100   0.00102  -2.36631
   D19        2.38599  -0.00086   0.00000  -0.02326  -0.02318   2.36281
   D20       -2.32424  -0.00075   0.00000  -0.02333  -0.02328  -2.34752
   D21        0.04384  -0.00098   0.00000  -0.02772  -0.02773   0.01611
   D22       -0.02155   0.00082   0.00000   0.01019   0.01018  -0.01136
   D23        1.55141   0.00094   0.00000   0.01012   0.01008   1.56149
   D24       -2.36370   0.00070   0.00000   0.00573   0.00563  -2.35806
   D25       -1.57068  -0.00002   0.00000   0.00352   0.00358  -1.56710
   D26        0.00228   0.00009   0.00000   0.00345   0.00348   0.00576
   D27        2.37035  -0.00015   0.00000  -0.00094  -0.00097   2.36938
   D28        2.34800   0.00015   0.00000   0.00211   0.00214   2.35014
   D29       -2.35614  -0.00019   0.00000  -0.00178  -0.00176  -2.35790
   D30       -0.00566   0.00003   0.00000   0.00124   0.00128  -0.00438
   D31       -1.57437   0.00029   0.00000   0.00431   0.00434  -1.57003
   D32        0.00468  -0.00005   0.00000   0.00042   0.00043   0.00511
   D33        2.35516   0.00017   0.00000   0.00345   0.00347   2.35864
   D34       -0.00228  -0.00009   0.00000  -0.00345  -0.00347  -0.00575
   D35        1.57677  -0.00043   0.00000  -0.00734  -0.00738   1.56939
   D36       -2.35594  -0.00021   0.00000  -0.00432  -0.00433  -2.36027
   D37       -0.02162   0.00082   0.00000   0.01020   0.01021  -0.01141
   D38       -1.59180   0.00105   0.00000   0.01023   0.01024  -1.58156
   D39        2.32532   0.00096   0.00000   0.01423   0.01423   2.33954
   D40        1.56573  -0.00008   0.00000   0.00338   0.00338   1.56911
   D41       -0.00445   0.00015   0.00000   0.00341   0.00341  -0.00104
   D42       -2.37052   0.00005   0.00000   0.00741   0.00740  -2.36312
   D43       -2.34993  -0.00015   0.00000  -0.00161  -0.00158  -2.35151
   D44        2.36308   0.00008   0.00000  -0.00158  -0.00155   2.36154
   D45       -0.00299  -0.00001   0.00000   0.00242   0.00244  -0.00055
   D46        0.00482  -0.00006   0.00000   0.00037   0.00038   0.00520
   D47        1.57205   0.00010   0.00000   0.00243   0.00245   1.57450
   D48       -2.34965  -0.00021   0.00000  -0.00360  -0.00361  -2.35326
   D49       -1.56278  -0.00031   0.00000  -0.00547  -0.00549  -1.56827
   D50        0.00445  -0.00015   0.00000  -0.00341  -0.00341   0.00104
   D51        2.36593  -0.00046   0.00000  -0.00944  -0.00947   2.35646
   D52        2.35019   0.00026   0.00000   0.00422   0.00423   2.35442
   D53       -2.36576   0.00042   0.00000   0.00627   0.00630  -2.35946
   D54       -0.00428   0.00011   0.00000   0.00024   0.00024  -0.00403
   D55        0.02159  -0.00082   0.00000  -0.01016  -0.01018   0.01141
   D56       -1.56813   0.00022   0.00000  -0.00086  -0.00087  -1.56900
   D57        2.34124   0.00032   0.00000   0.00552   0.00548   2.34672
   D58        1.59286  -0.00115   0.00000  -0.01056  -0.01057   1.58229
   D59        0.00315  -0.00012   0.00000  -0.00125  -0.00126   0.00189
   D60       -2.37067  -0.00001   0.00000   0.00513   0.00509  -2.36558
   D61       -2.32681  -0.00100   0.00000  -0.01393  -0.01393  -2.34074
   D62        2.36666   0.00004   0.00000  -0.00463  -0.00462   2.36204
   D63       -0.00715   0.00014   0.00000   0.00175   0.00173  -0.00542
   D64        1.57400  -0.00012   0.00000  -0.00344  -0.00347   1.57053
   D65        0.00444  -0.00015   0.00000  -0.00340  -0.00341   0.00103
   D66       -2.35202  -0.00012   0.00000  -0.00316  -0.00317  -2.35519
   D67       -0.00314   0.00012   0.00000   0.00125   0.00126  -0.00188
   D68       -1.57270   0.00009   0.00000   0.00129   0.00132  -1.57138
   D69        2.35403   0.00011   0.00000   0.00153   0.00155   2.35558
   D70       -2.35413  -0.00001   0.00000  -0.00156  -0.00157  -2.35570
   D71        2.35950  -0.00004   0.00000  -0.00152  -0.00151   2.35799
   D72        0.00304  -0.00002   0.00000  -0.00128  -0.00128   0.00176
   D73       -0.00235  -0.00009   0.00000  -0.00352  -0.00350  -0.00585
   D74       -1.56964  -0.00024   0.00000  -0.00540  -0.00540  -1.57504
   D75        2.35318   0.00008   0.00000   0.00084   0.00086   2.35404
   D76        1.56415   0.00027   0.00000   0.00313   0.00317   1.56731
   D77       -0.00315   0.00012   0.00000   0.00126   0.00126  -0.00188
   D78       -2.36350   0.00044   0.00000   0.00749   0.00752  -2.35598
   D79       -2.34711  -0.00030   0.00000  -0.00626  -0.00626  -2.35337
   D80        2.36879  -0.00046   0.00000  -0.00813  -0.00816   2.36062
   D81        0.00843  -0.00014   0.00000  -0.00189  -0.00190   0.00652
   D82        0.00229   0.00009   0.00000   0.00347   0.00350   0.00579
   D83       -1.56006  -0.00099   0.00000  -0.00337  -0.00332  -1.56339
   D84        2.32362   0.00025   0.00000   0.01273   0.01275   2.33637
   D85        1.57328   0.00035   0.00000   0.00327   0.00326   1.57654
   D86        0.01092  -0.00073   0.00000  -0.00358  -0.00356   0.00736
   D87       -2.38857   0.00051   0.00000   0.01253   0.01250  -2.37607
   D88       -2.35735   0.00034   0.00000   0.00313   0.00315  -2.35419
   D89        2.36349  -0.00074   0.00000  -0.00371  -0.00367   2.35982
   D90       -0.03601   0.00049   0.00000   0.01240   0.01240  -0.02361
   D91        0.00314  -0.00012   0.00000  -0.00125  -0.00126   0.00188
   D92        1.57137  -0.00017   0.00000  -0.00060  -0.00061   1.57075
   D93       -2.35874  -0.00016   0.00000   0.00182   0.00180  -2.35693
   D94       -1.57910   0.00078   0.00000   0.00289   0.00289  -1.57621
   D95       -0.01087   0.00072   0.00000   0.00354   0.00353  -0.00734
   D96        2.34221   0.00073   0.00000   0.00595   0.00595   2.34816
   D97        2.35964  -0.00004   0.00000  -0.00435  -0.00434   2.35530
   D98       -2.35532  -0.00010   0.00000  -0.00370  -0.00370  -2.35902
   D99       -0.00224  -0.00009   0.00000  -0.00129  -0.00128  -0.00352
   D100      -0.00470   0.00004   0.00000  -0.00044  -0.00045  -0.00514
   D101      -1.57673  -0.00010   0.00000  -0.00007  -0.00004  -1.57677
   D102       2.35407  -0.00016   0.00000  -0.00044  -0.00044   2.35363
   D103       1.56111   0.00087   0.00000   0.00320   0.00315   1.56426
   D104      -0.01092   0.00073   0.00000   0.00358   0.00356  -0.00736
   D105      -2.36331   0.00066   0.00000   0.00321   0.00316  -2.36015
   D106      -2.32261  -0.00030   0.00000  -0.01252  -0.01250  -2.33511
   D107       2.38855  -0.00045   0.00000  -0.01214  -0.01209   2.37645
   D108       0.03616  -0.00051   0.00000  -0.01251  -0.01250   0.02366
   D109      -0.00444   0.00015   0.00000   0.00340   0.00341  -0.00104
   D110       1.57981  -0.00085   0.00000  -0.00304  -0.00302   1.57679
   D111      -2.36070   0.00003   0.00000   0.00551   0.00550  -2.35520
   D112      -1.57338   0.00028   0.00000   0.00290   0.00290  -1.57049
   D113       0.01087  -0.00072   0.00000  -0.00354  -0.00353   0.00734
   D114       2.35354   0.00016   0.00000   0.00500   0.00499   2.35854
   D115       2.35673   0.00022   0.00000   0.00015   0.00015   2.35688
   D116      -2.34220  -0.00078   0.00000  -0.00629  -0.00628  -2.34848
   D117       0.00047   0.00010   0.00000   0.00225   0.00224   0.00272
         Item               Value     Threshold  Converged?
 Maximum Force            0.022066     0.000450     NO 
 RMS     Force            0.002327     0.000300     NO 
 Maximum Displacement     0.161642     0.001800     NO 
 RMS     Displacement     0.021157     0.001200     NO 
 Predicted change in Energy=-4.470328D-03
 GradGradGradGradGradGradGradGradGradGradGradGradGradGradGradGradGradGrad

                          Input orientation:                          
 ---------------------------------------------------------------------
 Center     Atomic      Atomic             Coordinates (Angstroms)
 Number     Number       Type             X           Y           Z
 ---------------------------------------------------------------------
      1          6           0        2.075707   -1.383488   -1.022255
      2          6           0        3.346018   -0.598177   -1.078403
      3          6           0        3.917959    0.321817    0.065820
      4          6           0        4.243866    1.437711   -0.988551
      5          6           0        3.691929    0.519185   -2.135049
      6          6           0        5.119174   -0.092157   -2.336721
      7          6           0        4.802716   -1.207804   -1.283128
      8          6           0        5.675355    0.828518   -1.191027
      9          6           0        5.345887   -0.288421   -0.136322
     10          1           0        6.605258    1.399131   -1.235551
     11          1           0        4.016244    2.499194   -0.871083
     12          1           0        3.018762    0.842388   -2.933232
     13          1           0        5.601906   -0.257567   -3.302045
     14          1           0        3.429471    0.486848    1.029485
     15          1           0        6.010633   -0.612453    0.667119
[...]
 .01187988,-0.03120369,0.47832652,-0.00158184,-0.00825681,0.00592284,-0
 .00983768,-0.09485862,0.05489314,-0.00616084,-0.00536690,0.00345726,-0
 .02430989,-0.09113471,-0.05372996,-0.06253594,0.37522697,0.00333345,-0
 .00317650,0.00361431,0.00017739,0.04643659,-0.09428160,-0.01405074,0.0
 0877965,-0.06679240,-0.03772517,-0.03832151,-0.10583817,0.15527786,-0.
 06941894,0.53089645,-0.00177889,0.00125157,0.00210191,-0.04410766,-0.0
 0428403,0.03774314,0.00081769,0.00003586,-0.00020864,-0.01740896,0.016
 78491,0.01213596,-0.13866435,0.04429298,0.02188221,0.41681460,0.000292
 02,-0.00145621,0.00093783,-0.00954426,-0.00429804,0.01933768,0.0000445
 2,0.00064423,0.00000331,0.02248718,-0.02733425,-0.04087627,0.04288422,
 -0.05755106,-0.00818999,-0.02365711,0.35711470,0.00016640,-0.00028808,
 -0.00290544,0.02719385,0.01264079,-0.01711496,-0.00018225,0.00001708,0
 .00089719,0.01052870,-0.02925715,-0.02168815,0.00275842,0.00002002,-0.
 05836250,-0.13535980,0.04792870,0.61805553,-0.01628559,0.00879640,0.00
 218925,-0.13073918,0.04479107,0.01295475,-0.01616697,0.02231660,0.0104
 9432,0.00070021,-0.00000025,-0.00001332,-0.01980247,0.03103239,-0.0047
 5046,-0.04697849,-0.01647319,0.02230581,0.35585613,-0.01407456,0.01396
 970,0.00283330,0.02370054,-0.07350231,-0.00521402,0.01699979,-0.026571
 30,-0.02898830,0.00003096,0.00105974,0.00004041,0.02398407,-0.03747182
 ,0.02157932,-0.00913104,-0.10775797,0.04053725,-0.06102464,0.67474315,
 0.00018802,0.00052688,-0.00216217,0.01115392,-0.00729910,-0.04302267,0
 .01233030,-0.04042044,-0.02097480,-0.00000909,0.00004271,0.00061757,-0
 .00776228,0.03174245,-0.00643749,0.02090567,0.05995008,-0.09979059,-0.
 00596892,0.03454524,0.35371567,-0.00014368,0.00011539,-0.00000798,0.00
 032970,0.00026333,-0.00002153,-0.04448072,-0.00875946,0.02777255,-0.14
 153332,0.02540798,0.01275521,-0.05639360,-0.00792036,-0.02186570,-0.06
 477987,-0.02416704,-0.01401059,-0.00122345,-0.02326347,-0.00282375,0.6
 0022594,0.00011446,-0.00026044,-0.00000549,0.00026418,0.00005631,-0.00
 001254,-0.00388547,-0.00481537,0.01343327,0.04782145,-0.07222221,-0.00
 780927,-0.00030712,0.00039461,-0.01096721,-0.03291279,-0.08034995,-0.0
 4392543,-0.03573640,-0.05673406,-0.00058308,0.15290882,0.44343983,-0.0
 0000892,-0.00000521,-0.00033225,-0.00002102,-0.00001301,-0.00010314,0.
 03754710,0.01962641,-0.01743736,0.01466976,-0.00558549,-0.03963846,-0.
 03054900,-0.01590425,-0.01070516,-0.03169895,-0.05514468,-0.10831097,-
 0.00391774,-0.00184037,-0.00877002,-0.01180394,-0.00719935,0.35051769,
 -0.00223828,0.00166321,-0.00199112,-0.05598265,-0.00049365,-0.03080887
 ,-0.13877552,0.04508297,0.00245622,-0.02097929,0.02377296,-0.00749215,
 0.00088047,-0.00001259,0.00020306,0.00777609,-0.00709879,-0.00239374,-
 0.05825594,-0.01228424,-0.03304762,-0.05821324,-0.02743624,0.01799590,
 0.47601832,0.00016578,-0.00135764,-0.00075061,-0.00871805,0.00070494,-
 0.01545692,0.04206499,-0.05742562,-0.00048886,0.03126754,-0.03834775,0
 .03212868,0.00000454,0.00065822,-0.00005079,-0.00654328,-0.00636895,0.
 00362057,-0.02299116,-0.09064802,-0.05521204,-0.01373384,-0.09907743,0
 .06130668,-0.06237002,0.37938643,-0.00027244,0.00022348,-0.00254503,-0
 .02144238,-0.01011431,-0.01023168,0.02119289,-0.00914182,-0.05839127,-
 0.00463017,0.02186430,-0.00708412,0.00017842,-0.00006476,0.00081638,-0
 .01433056,0.00871289,-0.06783355,-0.03606944,-0.03760681,-0.10553805,0
 .00221888,0.05231235,-0.09606274,0.15472477,-0.07622831,0.53640451,-0.
 00020789,-0.00016989,0.00001331,-0.00040316,0.00002539,-0.00000178,-0.
 00229481,0.00012857,0.00103469,-0.00734337,-0.01417481,-0.00076621,-0.
 00297446,0.00020444,-0.00107204,-0.00118076,0.00113171,0.00044336,-0.0
 0059918,0.00073491,-0.00004555,-0.25031472,-0.12270293,0.00947642,0.00
 236504,0.00179628,0.00119215,0.26077978,-0.00017037,-0.00003323,0.0000
 0809,0.00002407,-0.00043003,-0.00000134,0.00078083,-0.00125539,-0.0001
 2560,0.00825358,0.01363592,0.00059320,0.00122453,-0.00119065,0.0002278
 9,-0.00760656,-0.00435784,0.00621786,-0.00094198,-0.00451469,-0.000152
 65,-0.12271192,-0.12452521,0.00579045,-0.01188040,-0.00389675,-0.00628
 170,0.13517751,0.12218734,0.00001296,0.00000805,0.00007000,-0.00000257
 ,-0.00000163,-0.00044393,0.00234869,0.00070883,-0.00326263,0.00119970,
 0.00285206,-0.00248385,-0.00223784,-0.00043751,-0.00264662,-0.01717046
 ,-0.00495702,0.00935076,-0.00019243,-0.00032166,-0.00169743,0.00947821
 ,0.00579135,-0.04999326,0.01683748,0.00263304,0.00534842,-0.01044095,-
 0.00637875,0.04007065,0.00059116,-0.00098734,-0.00000921,-0.00249097,-
 0.00287102,-0.00023799,0.00070121,-0.00647211,-0.00485460,-0.06031391,
 0.05366575,0.00581585,0.00343180,-0.01040542,0.00448591,-0.00230295,0.
 00087739,0.00090758,-0.00053479,-0.00007298,-0.00000974,0.00692038,0.0
 2159859,0.00092513,-0.00272052,0.00144213,-0.00078859,0.00174214,-0.00
 167485,-0.00020631,0.05167830,0.00073004,-0.00045385,-0.00023303,-0.00
 114082,-0.00258144,0.00009681,0.00316862,-0.00679520,-0.00543377,0.053
 60381,-0.31187082,-0.02842134,0.00241257,-0.00478441,0.00252719,0.0001
 7979,-0.00115901,-0.00055659,-0.00003602,-0.00019632,0.00003606,-0.000
 85256,-0.00047939,0.00027884,0.00052660,-0.00163537,0.00075397,0.00042
 849,0.00058402,-0.00009282,-0.05896958,0.32847432,0.00014187,-0.000059
 13,0.00134211,-0.00008729,0.00026984,-0.00232993,-0.00784639,0.0149177
 0,0.00983598,0.00581029,-0.02842957,-0.05233729,0.00944555,-0.01555982
 ,0.00509172,0.00116061,-0.00200771,-0.00337459,-0.00000643,0.00004031,
 -0.00056502,-0.00104221,-0.00198466,-0.00274290,-0.00118341,0.00204282
 ,-0.00248085,-0.00002217,0.00011946,0.00116382,-0.00638218,0.03126315,
 0.04300951,0.00112767,0.00084511,-0.00108380,0.00926034,0.00106246,0.0
 0679577,-0.00109390,-0.00006497,0.00166549,-0.00328442,0.00234021,-0.0
 0000963,-0.15136297,0.04885919,-0.12252363,-0.00346057,0.00109465,-0.0
 1815906,-0.00144671,0.00060336,-0.00019688,-0.00410748,-0.00062619,-0.
 00077441,-0.00055509,-0.00003663,0.00005454,-0.00065307,0.00006316,-0.
 00127254,0.00107501,-0.00011097,-0.00015589,0.15158903,0.00052926,0.00
 244560,-0.00096132,0.01517263,-0.00041096,0.00688349,-0.00032416,-0.00
 119664,-0.00055138,-0.01063916,0.01317914,-0.00849044,0.04943653,-0.07
 333862,0.05987857,0.00014215,-0.00300905,0.00730531,0.00140603,-0.0043
 2249,0.00100838,-0.00162542,-0.00178868,-0.00110244,-0.00013192,-0.000
 52200,-0.00014413,-0.00083391,0.00079553,-0.00009276,0.00110701,0.0009
 5578,0.00148047,-0.05474263,0.06563353,-0.00072137,-0.00075303,0.00169
 900,-0.00934672,-0.00230960,-0.00648089,0.00035538,0.00021184,-0.00439
 088,-0.00499173,0.00955862,-0.00586467,-0.12318734,0.05949943,-0.19755
 240,0.00276187,-0.00166510,0.01049742,0.00049104,-0.00010706,-0.000913
 01,0.00037221,-0.00044974,-0.00106914,0.00016252,-0.00008199,-0.000373
 36,-0.00024655,0.00049158,0.00046631,0.00030398,-0.00020340,0.00145833
 ,0.13574163,-0.06565997,0.20304266,0.00032236,0.00001167,0.00135347,-0
 .00400311,-0.00041351,0.00126091,-0.00046657,-0.00000424,-0.00014031,-
 0.00179442,0.00052536,0.00003299,-0.00044773,-0.00203548,0.02015170,-0
 .10394349,0.01908974,0.10840821,-0.00240228,0.00048106,-0.00028099,0.0
 0983924,0.00309323,-0.00976791,-0.00152220,-0.00002769,-0.00227989,0.0
 0072827,0.00044232,0.00142849,0.00078760,0.00019116,0.00071689,0.00188
 127,-0.00024991,-0.00116404,0.09974753,-0.00065712,0.00105924,0.000231
 71,-0.00108679,-0.00233579,0.00144300,-0.00001778,-0.00055307,0.000056
 39,0.00119142,-0.00388128,-0.00194306,-0.00100504,-0.00150280,-0.00926
 764,0.01912121,-0.05600240,-0.03806916,-0.00930681,0.01247466,0.014047
 50,0.01184023,0.00072729,-0.00827034,-0.00006472,-0.00170404,0.0010583
 5,-0.00037827,0.00140810,0.00100511,0.00083781,-0.00022983,-0.00128838
 ,-0.00034102,0.00125475,0.00055179,-0.02105531,0.04700077,0.00000329,-
 0.00062418,0.00009876,-0.00009339,0.00058366,-0.00106580,-0.00016754,0
 .00003868,-0.00027728,-0.00018766,-0.00046851,-0.00116025,-0.00065268,
 -0.00020456,0.00569254,0.10846161,-0.03803051,-0.26457772,0.00287969,-
 0.00621588,-0.00633423,0.00786276,0.00291237,-0.00685960,-0.00079337,0
 .00039120,-0.00360957,-0.00022440,-0.00004241,0.00135060,0.00052265,0.
 00004454,0.00004919,0.00079309,-0.00027891,0.00035369,-0.11931056,0.04
 179406,0.27640990,0.00153087,0.00078292,0.00129135,0.00940927,0.003062
 28,-0.00973243,-0.10423762,0.01841757,0.10750723,-0.00255612,0.0007513
 4,-0.00038288,-0.00162158,0.00028556,-0.00219741,-0.00059190,-0.000017
 29,-0.00001073,-0.00145219,0.00050354,0.00038348,-0.00394315,-0.000716
 23,0.00126773,0.00007849,-0.00214353,0.02006403,-0.00032866,-0.0002627
 5,0.00141075,0.00107402,-0.00010590,0.00019317,0.00059299,0.00026114,-
 0.00083051,0.00003428,0.00002374,0.00030050,0.09950749,0.00058203,0.00
 215120,0.00095952,0.01208348,0.00047882,-0.00838163,0.01878480,-0.0558
 4952,-0.03746305,-0.00905805,0.01263251,0.01382629,-0.00004054,-0.0013
 4974,0.00108445,-0.00007796,-0.00055812,0.00012905,0.00117649,-0.00403
 248,-0.00182418,-0.00135470,-0.00207134,0.00123846,-0.00123494,-0.0016
 7919,-0.00904835,-0.00083627,0.00083529,0.00035519,0.00081634,0.001205
 32,-0.00172039,0.00020062,0.00098199,0.00045081,0.00001457,0.00019452,
 -0.00009457,-0.02104202,0.04638939,0.00088540,0.00070136,0.00158986,0.
 00844982,0.00315238,-0.00748261,0.10824262,-0.03699530,-0.26214431,0.0
 0260156,-0.00651834,-0.00605066,-0.00094137,0.00026508,-0.00371063,-0.
 00013279,0.00005143,-0.00029913,-0.00017614,-0.00055951,-0.00119694,-0
 .00002273,0.00042034,-0.00095133,-0.00085654,-0.00008552,0.00562919,0.
 00025548,-0.00037767,0.00010185,-0.00008054,0.00017761,0.00121168,0.00
 052605,-0.00012906,-0.00109033,0.00028233,-0.00010614,-0.00034284,-0.1
 1920216,0.04092057,0.27432865,0.00004070,0.00038140,-0.00129863,-0.004
 14669,-0.00036546,-0.00074040,-0.00401166,0.00122438,-0.01809029,-0.00
 170301,0.00054142,0.00021054,-0.00040077,-0.00004225,0.00015868,-0.001
 01428,-0.00041381,0.00169022,-0.00323276,0.00204676,-0.00023883,0.0098
 2469,0.00113425,0.00684841,-0.15140784,0.04996662,-0.12373317,0.000517
 05,0.00066927,-0.00117808,0.00053963,0.00029916,-0.00075192,-0.0000921
 9,0.00009453,-0.00031961,0.00060611,0.00022461,0.00054061,0.00188207,-
 0.00034524,0.00079741,0.15196910,-0.00066541,0.00095698,0.00002861,-0.
 00141977,-0.00197628,-0.00136611,0.00042885,-0.00288786,0.00747925,0.0
 0143913,-0.00418007,0.00114841,-0.00006379,-0.00053047,-0.00008618,-0.
 00032581,-0.00152529,-0.00060001,-0.01086553,0.01309589,-0.00863476,0.
 01482699,-0.00015289,0.00677323,0.05000796,-0.07381019,0.06069585,-0.0
 0061507,0.00157474,-0.00088392,0.00115341,-0.00041095,0.00098287,0.000
 10868,0.00014679,0.00016841,0.00028603,0.00103873,-0.00013375,-0.00025
 692,0.00126327,-0.00032687,-0.05501725,0.06656468,-0.00009901,0.000712
 18,0.00048182,0.00046265,-0.00068110,-0.00128095,0.00273560,-0.0015622
 8,0.01064186,0.00056696,-0.00016847,-0.00095170,0.00018330,-0.00007252
 ,-0.00036688,0.00020755,0.00007280,-0.00429573,-0.00538668,0.00934146,
 -0.00612551,-0.00881610,-0.00214873,-0.00596067,-0.12378180,0.06066783
 ,-0.19932216,0.00029046,-0.00004916,0.00139582,-0.00042618,-0.00019827
 ,0.00047819,-0.00033547,0.00015920,-0.00016871,-0.00083275,0.00045146,
 -0.00103752,-0.00116015,0.00050338,0.00034414,0.13614872,-0.06668747,0
 .20463738,0.00338739,-0.00075731,-0.00027628,0.00679937,0.02190978,0.0
 0092680,-0.00208296,0.00076035,0.00121237,-0.00055129,-0.00022418,-0.0
 0002189,-0.00260455,0.00137089,-0.00113152,0.00068221,-0.00647458,-0.0
 0502281,-0.06025642,0.05283227,0.00574890,-0.00264449,-0.00286592,-0.0
 0016912,0.00348885,-0.01035781,0.00464918,0.00024442,-0.00131827,-0.00
 002024,0.00014993,0.00010088,0.00001709,0.00048327,0.00115547,-0.00040
 806,0.00104715,0.00084472,-0.00007502,0.00072497,0.00083839,0.00051045
 ,0.00104834,0.00113113,0.00031815,0.05060956,-0.00023379,0.00055235,-0
 .00004259,-0.00120731,-0.00131309,0.00027330,0.00044409,-0.00124939,-0
 .00045744,-0.00007087,-0.00032784,0.00002845,0.00079632,-0.00169406,0.
 00057829,0.00336108,-0.00644682,-0.00577960,0.05187747,-0.30978130,-0.
 02807869,-0.00122785,-0.00251798,0.00006296,0.00263857,-0.00456569,0.0
 0288387,0.00015187,-0.00081023,-0.00019067,0.00012309,-0.00048781,-0.0
 0007544,0.00031313,-0.00044739,-0.00016770,-0.00007852,0.00119080,0.00
 019431,0.00020123,-0.00025723,0.00001108,-0.00008905,0.00095008,-0.000
 23287,-0.05803221,0.32686335,-0.00022951,0.00001038,0.00132939,-0.0010
 9621,-0.00205833,-0.00310540,0.00136577,-0.00195764,-0.00334960,-0.000
 00828,0.00004378,-0.00056952,-0.00136242,0.00198658,-0.00238574,-0.008
 04138,0.01455046,0.00978881,0.00566415,-0.02817224,-0.05221342,-0.0000
 2556,0.00022787,-0.00180351,0.00966978,-0.01514434,0.00510363,0.000108
 60,-0.00004260,0.00117485,0.00001898,-0.00007329,0.00022358,-0.0007314
 0,0.00100127,0.00044868,0.00020179,-0.00170210,0.00125350,0.00070391,-
 0.00130687,0.00001712,-0.00014805,0.00144759,0.00149141,-0.00621336,0.
 03104911,0.04279397,-0.05352782,-0.01787212,-0.03052739,-0.00545523,-0
 .01692956,-0.02884306,-0.00287398,-0.00134804,0.00248467,-0.00005535,-
 0.00032303,-0.00054977,0.00112052,0.00017116,0.00080676,0.00004857,-0.
 00007264,-0.00007789,0.00118527,0.00105753,0.00006786,0.00021968,0.000
 10927,0.00008371,0.00031375,-0.00021317,-0.00066881,-0.00004356,0.0000
 2484,0.00002974,-0.00015040,-0.00018434,0.00033518,-0.00000807,-0.0001
 3996,0.00050117,-0.00001174,0.00004841,0.00004967,0.00000835,0.0000601
 5,-0.00005466,-0.00030482,0.00016016,0.00019062,-0.00035491,0.00049278
 ,0.00020953,0.05639231,-0.01722940,-0.11550989,-0.11139069,-0.00327160
 ,-0.01162568,-0.01650204,-0.00175161,0.00104424,0.00193478,0.00031827,
 -0.00009543,-0.00039172,0.00079648,0.00057668,-0.00000873,-0.00011953,
 -0.00000781,-0.00006951,-0.00038387,0.00089060,0.00031591,0.00003699,0
 .00014634,0.00002017,-0.00036160,-0.00011425,-0.00028086,-0.00002008,-
 0.00003334,0.00007841,-0.00008110,-0.00011067,0.00022526,0.00004269,-0
 .00033607,0.00048759,-0.00002345,-0.00002036,0.00008772,0.00012494,-0.
 00002215,0.00005570,-0.00027859,0.00004208,0.00010805,-0.00034867,0.00
 013330,0.00021642,0.02254162,0.12297836,-0.02923407,-0.11056975,-0.234
 58794,-0.00135024,0.00093099,0.00224312,0.00166649,0.00141558,0.001918
 66,-0.00009292,-0.00032402,0.00035122,-0.00054144,-0.00050728,0.000463
 97,-0.00017226,-0.00012971,0.00006149,-0.00022932,-0.00022991,0.000089
 32,-0.00006193,-0.00007227,0.00004665,-0.00013243,0.00028069,0.0000010
 5,-0.00006081,0.00002100,0.00006053,-0.00008837,-0.00006675,-0.0000038
 6,-0.00023686,-0.00021416,0.00013859,-0.00009478,-0.00000387,0.0000641
 6,0.00007653,0.00013914,0.00005342,-0.00006242,-0.00002884,-0.00000208
 ,-0.00037543,0.00007811,0.00001094,0.03380347,0.12355517,0.25293512,-0
 .20343039,0.12383464,0.02630322,-0.02709655,0.01920311,0.00428494,0.00
 106305,0.00009844,-0.00061926,-0.00017228,-0.00001567,0.00002637,0.001
 13804,-0.00012221,0.00049680,-0.00037313,0.00038779,0.00028762,0.00045
 260,-0.00423497,-0.00029701,0.00020709,0.00000619,-0.00000902,-0.00036
 396,0.00048697,-0.00012185,0.00000067,-0.00011490,-0.00001618,0.000019
 50,-0.00012954,-0.00001807,0.00004698,-0.00063692,0.00045881,-0.000082
 16,-0.00040753,0.00018743,-0.00005414,-0.00054147,-0.00060097,-0.00011
 424,-0.00036730,-0.00023620,0.00013614,0.00004874,-0.00002233,0.004585
 03,-0.00335078,0.00005812,0.22402583,0.12218943,-0.14637633,-0.0207617
 2,-0.01579008,0.01379820,0.00292323,0.00098564,0.00050270,-0.00029225,
 0.00010372,0.00017373,-0.00000429,0.00108286,0.00057906,0.00008143,-0.
 00020030,0.00054756,-0.00021174,-0.00319810,-0.00159129,0.00007912,0.0
 0019163,0.00009320,-0.00002098,-0.00018991,0.00044659,0.00032513,0.000
 00027,0.00004018,0.00000864,0.00005545,0.00005988,0.00000441,0.0002679
 4,-0.00003778,0.00006528,0.00005872,-0.00017165,0.00008809,0.00024012,
 -0.00002632,-0.00009496,0.00002796,-0.00015586,-0.00012510,-0.00011767
 ,0.00002688,0.00002558,0.01245295,-0.01058095,-0.00105198,-0.13420161,
 0.15588520,0.02615980,-0.02092870,-0.05373523,0.00123362,-0.00060812,-
 0.00151699,0.00030115,0.00061007,0.00058951,0.00003664,0.00000779,0.00
 009968,-0.00023872,-0.00060753,0.00045699,-0.00022893,-0.00031427,0.00
 002627,-0.00020260,0.00018454,0.00122970,0.00000733,-0.00000228,0.0001
 1200,0.00028544,0.00029993,0.00011808,-0.00000607,0.00002034,-0.000057
 08,-0.00000158,0.00002283,-0.00004690,-0.00004784,0.00006143,-0.000216
 00,-0.00004041,0.00000971,-0.00001032,0.00005182,0.00008304,-0.0001345
 5,0.00006730,0.00004044,0.00000600,-0.00003735,0.00000882,-0.00012451,
 0.02303342,-0.01720394,-0.00314967,-0.02948331,0.02296144,0.05230075,-
 0.04889476,0.00402711,-0.00438255,0.00043007,-0.02176618,0.02609228,0.
 00106112,0.00041781,-0.00086920,0.00008822,-0.00035526,0.00055636,-0.0
 0355228,-0.00125210,-0.00165716,0.00044615,-0.00037051,0.00052669,0.00
 118223,0.00111112,-0.00009749,0.00021099,0.00013883,-0.00009415,0.0000
 9352,-0.00005969,0.00006244,-0.00003372,0.00002190,-0.00000841,-0.0001
 9713,-0.00011139,-0.00032469,0.00000791,0.00001924,0.00006733,-0.00032
 015,0.00018827,-0.00009668,-0.00005746,-0.00002568,-0.00048321,0.00000
 057,0.00005450,-0.00002965,-0.00030698,0.00049123,-0.00006400,-0.00108
 758,0.00335928,-0.00287133,0.00001193,0.01604096,-0.02088969,0.0509173
 4,0.00503055,-0.15713624,0.12692117,-0.00042411,-0.01425163,0.01452211
 ,0.00068607,0.00050422,-0.00013895,0.00035468,-0.00020451,0.00023832,-
 0.00189009,0.00159513,-0.00168588,-0.00031114,-0.00012374,0.00034065,-
 0.00043851,0.00089031,-0.00008942,0.00002526,0.00013735,-0.00001107,-0
 .00013321,-0.00004328,0.00008087,-0.00004819,-0.00001376,-0.00008394,-
 0.00014256,-0.00008425,-0.00022117,0.00012122,0.00001656,-0.00008777,-
 0.00030577,0.00005235,-0.00004134,-0.00010974,-0.00028622,-0.00056219,
 -0.00005874,-0.00000337,-0.00009040,-0.00044726,0.00018206,-0.00010161
 ,-0.00003603,0.01264499,-0.01322214,0.00005702,-0.01321300,0.01535445,
 -0.00192945,0.16933703,-0.00553532,0.12627141,-0.19761626,0.00165115,0
 .00062393,-0.00097252,0.00055612,0.00044610,0.00060022,0.00021606,0.00
 030507,0.00031917,-0.00093265,-0.00127968,0.00204723,-0.00001677,-0.00
 022994,-0.00012416,-0.00006553,0.00015394,0.00008909,0.00003488,0.0000
 6249,0.00006419,0.00014587,0.00012795,0.00005114,0.00007206,-0.0000380
 0,0.00003116,0.00010521,0.00007828,0.00001722,-0.00004917,-0.00015355,
 0.00001472,0.00007487,0.00000161,0.00000280,0.00026577,0.00014914,0.00
 012740,0.00009951,-0.00001674,0.00003526,0.00036814,-0.00014329,-0.000
 08419,-0.00087423,0.01876232,-0.02069470,-0.00067910,-0.00399933,0.004
 05228,0.00456313,-0.14112169,0.21203995\\0.00002501,-0.00002604,0.0000
 0460,0.00008470,-0.00000543,-0.00000918,-0.00003471,0.00002315,0.00002
 041,0.00000876,0.00000682,-0.00000893,-0.00003390,0.00001043,0.0000080
 0,0.00004601,0.00000895,-0.00002746,-0.00002444,-0.00001668,-0.0000109
 5,-0.00006117,-0.00003555,0.00000196,0.00002227,-0.00000829,0.00001649
 ,-0.00000867,0.00000763,-0.00000114,0.00000598,0.00000362,0.00000125,0
 .00000380,-0.00000635,-0.00000092,-0.00000386,-0.00000665,-0.00000312,
 -0.00000683,-0.00000114,-0.00000003,-0.00000758,-0.00000433,0.00000041
 ,0.00001025,0.00000247,-0.00000267,-0.00000146,0.00001449,-0.00000092,
 -0.00002245,0.00001420,0.00000263,-0.00000170,0.00001868,0.00000957\\\
 @


 IT WAS A GAME, A VERY INTERESTING GAME ONE COULD
 PLAY.  WHENEVER ONE SOLVED ONE OF THE LITTLE PROBLEMS,
 ONE COULD WRITE A PAPER ABOUT IT.  IT WAS VERY EASY IN
 THOSE DAYS FOR ANY SECOND-RATE PHYSICIST TO DO
 FIRST-RATE WORK.  THERE HAS NOT BEEN SUCH A GLORIOUS
 TIME SINCE.  IT IS VERY DIFFICULT NOW FOR A FIRST-RATE
 PHYSICIST TO DO SECOND-RATE WORK.
     P.A.M. DIRAC, ON THE EARLY DAYS OF QUANTUM MECHANICS
                   DIRECTIONS IN PHYSICS, 1978, P. 7
 Job cpu time:       0 days  0 hours 15 minutes  1.9 seconds.
 Elapsed time:       0 days  0 hours  3 minutes 48.3 seconds.
 File lengths (MBytes):  RWF=    110 Int=      0 D2E=      0 Chk=      5 Scr=      1
 Normal termination of Gaussian 16 at Mon Apr  7 14:02:25 2025.
